V -t * -v 1.0a5 -a 0
A -t * -n 1 -p 0 -o 0x7fffffff -c 30 -a 1
A -t * -h 1 -m 1073741823 -s 0
c -t * -i 1 -n Blue
c -t * -i 2 -n Red
n -t * -a 35 -s 35 -S UP -v circle -c black -i black
n -t * -a 36 -s 36 -S UP -v circle -c black -i black
n -t * -a 37 -s 37 -S UP -v circle -c black -i black
n -t * -a 38 -s 38 -S UP -v circle -c black -i black
n -t * -a 39 -s 39 -S UP -v circle -c black -i black
n -t * -a 40 -s 40 -S UP -v circle -c black -i black
n -t * -a 41 -s 41 -S UP -v circle -c black -i black
n -t * -a 42 -s 42 -S UP -v circle -c black -i black
n -t * -a 43 -s 43 -S UP -v circle -c black -i black
n -t * -a 44 -s 44 -S UP -v circle -c black -i black
n -t * -a 45 -s 45 -S UP -v circle -c black -i black
n -t * -a 46 -s 46 -S UP -v circle -c black -i black
n -t * -a 47 -s 47 -S UP -v circle -c black -i black
n -t * -a 48 -s 48 -S UP -v circle -c black -i black
n -t * -a 49 -s 49 -S UP -v circle -c black -i black
n -t * -a 10 -s 10 -S UP -v circle -c black -i black
n -t * -a 11 -s 11 -S UP -v circle -c black -i black
n -t * -a 12 -s 12 -S UP -v circle -c black -i black
n -t * -a 13 -s 13 -S UP -v circle -c black -i black
n -t * -a 14 -s 14 -S UP -v circle -c black -i black
n -t * -a 15 -s 15 -S UP -v circle -c black -i black
n -t * -a 16 -s 16 -S UP -v circle -c black -i black
n -t * -a 0 -s 0 -S UP -v circle -c black -i black
n -t * -a 17 -s 17 -S UP -v circle -c black -i black
n -t * -a 1 -s 1 -S UP -v circle -c black -i black
n -t * -a 18 -s 18 -S UP -v circle -c black -i black
n -t * -a 2 -s 2 -S UP -v circle -c black -i black
n -t * -a 19 -s 19 -S UP -v circle -c black -i black
n -t * -a 20 -s 20 -S UP -v circle -c black -i black
n -t * -a 3 -s 3 -S UP -v circle -c black -i black
n -t * -a 21 -s 21 -S UP -v circle -c black -i black
n -t * -a 4 -s 4 -S UP -v circle -c black -i black
n -t * -a 22 -s 22 -S UP -v circle -c black -i black
n -t * -a 5 -s 5 -S UP -v circle -c black -i black
n -t * -a 23 -s 23 -S UP -v circle -c black -i black
n -t * -a 6 -s 6 -S UP -v circle -c black -i black
n -t * -a 24 -s 24 -S UP -v circle -c black -i black
n -t * -a 7 -s 7 -S UP -v circle -c black -i black
n -t * -a 25 -s 25 -S UP -v circle -c black -i black
n -t * -a 8 -s 8 -S UP -v circle -c black -i black
n -t * -a 26 -s 26 -S UP -v circle -c black -i black
n -t * -a 9 -s 9 -S UP -v circle -c black -i black
n -t * -a 27 -s 27 -S UP -v circle -c black -i black
n -t * -a 28 -s 28 -S UP -v circle -c black -i black
n -t * -a 29 -s 29 -S UP -v circle -c black -i black
n -t * -a 30 -s 30 -S UP -v circle -c black -i black
n -t * -a 31 -s 31 -S UP -v circle -c black -i black
n -t * -a 32 -s 32 -S UP -v circle -c black -i black
n -t * -a 33 -s 33 -S UP -v circle -c black -i black
n -t * -a 34 -s 34 -S UP -v circle -c black -i black
l -t * -s 1 -d 0 -S UP -r 1000000 -D 0.01 -c black
l -t * -s 2 -d 0 -S UP -r 1000000 -D 0.01 -c black
l -t * -s 3 -d 0 -S UP -r 1000000 -D 0.01 -c black
l -t * -s 4 -d 0 -S UP -r 1000000 -D 0.01 -c black
l -t * -s 5 -d 0 -S UP -r 1000000 -D 0.01 -c black
l -t * -s 6 -d 0 -S UP -r 1000000 -D 0.01 -c black
l -t * -s 7 -d 0 -S UP -r 1000000 -D 0.01 -c black
l -t * -s 8 -d 0 -S UP -r 1000000 -D 0.01 -c black
l -t * -s 9 -d 0 -S UP -r 1000000 -D 0.01 -c black
l -t * -s 10 -d 0 -S UP -r 1000000 -D 0.01 -c black
l -t * -s 11 -d 0 -S UP -r 1000000 -D 0.01 -c black
l -t * -s 12 -d 0 -S UP -r 1000000 -D 0.01 -c black
l -t * -s 13 -d 0 -S UP -r 1000000 -D 0.01 -c black
l -t * -s 14 -d 0 -S UP -r 1000000 -D 0.01 -c black
l -t * -s 15 -d 0 -S UP -r 1000000 -D 0.01 -c black
l -t * -s 16 -d 0 -S UP -r 1000000 -D 0.01 -c black
l -t * -s 17 -d 0 -S UP -r 1000000 -D 0.01 -c black
l -t * -s 18 -d 0 -S UP -r 1000000 -D 0.01 -c black
l -t * -s 19 -d 0 -S UP -r 1000000 -D 0.01 -c black
l -t * -s 20 -d 0 -S UP -r 1000000 -D 0.01 -c black
l -t * -s 21 -d 0 -S UP -r 1000000 -D 0.01 -c black
l -t * -s 22 -d 0 -S UP -r 1000000 -D 0.01 -c black
l -t * -s 23 -d 0 -S UP -r 1000000 -D 0.01 -c black
l -t * -s 24 -d 0 -S UP -r 1000000 -D 0.01 -c black
l -t * -s 25 -d 0 -S UP -r 1000000 -D 0.01 -c black
l -t * -s 26 -d 0 -S UP -r 1000000 -D 0.01 -c black
l -t * -s 27 -d 0 -S UP -r 1000000 -D 0.01 -c black
l -t * -s 28 -d 0 -S UP -r 1000000 -D 0.01 -c black
l -t * -s 29 -d 0 -S UP -r 1000000 -D 0.01 -c black
l -t * -s 30 -d 0 -S UP -r 1000000 -D 0.01 -c black
l -t * -s 31 -d 0 -S UP -r 1000000 -D 0.01 -c black
l -t * -s 32 -d 0 -S UP -r 1000000 -D 0.01 -c black
l -t * -s 33 -d 0 -S UP -r 1000000 -D 0.01 -c black
l -t * -s 34 -d 0 -S UP -r 1000000 -D 0.01 -c black
l -t * -s 35 -d 0 -S UP -r 1000000 -D 0.01 -c black
l -t * -s 36 -d 0 -S UP -r 1000000 -D 0.01 -c black
l -t * -s 37 -d 0 -S UP -r 1000000 -D 0.01 -c black
l -t * -s 38 -d 0 -S UP -r 1000000 -D 0.01 -c black
l -t * -s 39 -d 0 -S UP -r 1000000 -D 0.01 -c black
l -t * -s 40 -d 0 -S UP -r 1000000 -D 0.01 -c black
l -t * -s 41 -d 0 -S UP -r 1000000 -D 0.01 -c black
l -t * -s 42 -d 0 -S UP -r 1000000 -D 0.01 -c black
l -t * -s 43 -d 0 -S UP -r 1000000 -D 0.01 -c black
l -t * -s 44 -d 0 -S UP -r 1000000 -D 0.01 -c black
l -t * -s 45 -d 0 -S UP -r 1000000 -D 0.01 -c black
l -t * -s 46 -d 0 -S UP -r 1000000 -D 0.01 -c black
l -t * -s 47 -d 0 -S UP -r 1000000 -D 0.01 -c black
l -t * -s 48 -d 0 -S UP -r 1000000 -D 0.01 -c black
l -t * -s 49 -d 0 -S UP -r 1000000 -D 0.01 -c black
+ -t 0.1 -s 1 -d 0 -p cbr -e 1000 -c 2 -i 0 -a 2 -x {1.0 49.0 0 ------- null}
- -t 0.1 -s 1 -d 0 -p cbr -e 1000 -c 2 -i 0 -a 2 -x {1.0 49.0 0 ------- null}
h -t 0.1 -s 1 -d 0 -p cbr -e 1000 -c 2 -i 0 -a 2 -x {1.0 49.0 -1 ------- null}
+ -t 0.108 -s 1 -d 0 -p cbr -e 1000 -c 2 -i 1 -a 2 -x {1.0 49.0 1 ------- null}
- -t 0.108 -s 1 -d 0 -p cbr -e 1000 -c 2 -i 1 -a 2 -x {1.0 49.0 1 ------- null}
h -t 0.108 -s 1 -d 0 -p cbr -e 1000 -c 2 -i 1 -a 2 -x {1.0 49.0 -1 ------- null}
+ -t 0.116 -s 1 -d 0 -p cbr -e 1000 -c 2 -i 2 -a 2 -x {1.0 49.0 2 ------- null}
- -t 0.116 -s 1 -d 0 -p cbr -e 1000 -c 2 -i 2 -a 2 -x {1.0 49.0 2 ------- null}
h -t 0.116 -s 1 -d 0 -p cbr -e 1000 -c 2 -i 2 -a 2 -x {1.0 49.0 -1 ------- null}
r -t 0.118 -s 1 -d 0 -p cbr -e 1000 -c 2 -i 0 -a 2 -x {1.0 49.0 0 ------- null}
+ -t 0.118 -s 0 -d 49 -p cbr -e 1000 -c 2 -i 0 -a 2 -x {1.0 49.0 0 ------- null}
- -t 0.118 -s 0 -d 49 -p cbr -e 1000 -c 2 -i 0 -a 2 -x {1.0 49.0 0 ------- null}
h -t 0.118 -s 0 -d 49 -p cbr -e 1000 -c 2 -i 0 -a 2 -x {1.0 49.0 -1 ------- null}
+ -t 0.124 -s 1 -d 0 -p cbr -e 1000 -c 2 -i 3 -a 2 -x {1.0 49.0 3 ------- null}
- -t 0.124 -s 1 -d 0 -p cbr -e 1000 -c 2 -i 3 -a 2 -x {1.0 49.0 3 ------- null}
h -t 0.124 -s 1 -d 0 -p cbr -e 1000 -c 2 -i 3 -a 2 -x {1.0 49.0 -1 ------- null}
r -t 0.126 -s 1 -d 0 -p cbr -e 1000 -c 2 -i 1 -a 2 -x {1.0 49.0 1 ------- null}
+ -t 0.126 -s 0 -d 49 -p cbr -e 1000 -c 2 -i 1 -a 2 -x {1.0 49.0 1 ------- null}
- -t 0.126 -s 0 -d 49 -p cbr -e 1000 -c 2 -i 1 -a 2 -x {1.0 49.0 1 ------- null}
h -t 0.126 -s 0 -d 49 -p cbr -e 1000 -c 2 -i 1 -a 2 -x {1.0 49.0 -1 ------- null}
+ -t 0.132 -s 1 -d 0 -p cbr -e 1000 -c 2 -i 4 -a 2 -x {1.0 49.0 4 ------- null}
- -t 0.132 -s 1 -d 0 -p cbr -e 1000 -c 2 -i 4 -a 2 -x {1.0 49.0 4 ------- null}
h -t 0.132 -s 1 -d 0 -p cbr -e 1000 -c 2 -i 4 -a 2 -x {1.0 49.0 -1 ------- null}
r -t 0.134 -s 1 -d 0 -p cbr -e 1000 -c 2 -i 2 -a 2 -x {1.0 49.0 2 ------- null}
+ -t 0.134 -s 0 -d 49 -p cbr -e 1000 -c 2 -i 2 -a 2 -x {1.0 49.0 2 ------- null}
- -t 0.134 -s 0 -d 49 -p cbr -e 1000 -c 2 -i 2 -a 2 -x {1.0 49.0 2 ------- null}
h -t 0.134 -s 0 -d 49 -p cbr -e 1000 -c 2 -i 2 -a 2 -x {1.0 49.0 -1 ------- null}
r -t 0.136 -s 0 -d 49 -p cbr -e 1000 -c 2 -i 0 -a 2 -x {1.0 49.0 0 ------- null}
+ -t 0.14 -s 1 -d 0 -p cbr -e 1000 -c 2 -i 5 -a 2 -x {1.0 49.0 5 ------- null}
- -t 0.14 -s 1 -d 0 -p cbr -e 1000 -c 2 -i 5 -a 2 -x {1.0 49.0 5 ------- null}
h -t 0.14 -s 1 -d 0 -p cbr -e 1000 -c 2 -i 5 -a 2 -x {1.0 49.0 -1 ------- null}
r -t 0.142 -s 1 -d 0 -p cbr -e 1000 -c 2 -i 3 -a 2 -x {1.0 49.0 3 ------- null}
+ -t 0.142 -s 0 -d 49 -p cbr -e 1000 -c 2 -i 3 -a 2 -x {1.0 49.0 3 ------- null}
- -t 0.142 -s 0 -d 49 -p cbr -e 1000 -c 2 -i 3 -a 2 -x {1.0 49.0 3 ------- null}
h -t 0.142 -s 0 -d 49 -p cbr -e 1000 -c 2 -i 3 -a 2 -x {1.0 49.0 -1 ------- null}
r -t 0.144 -s 0 -d 49 -p cbr -e 1000 -c 2 -i 1 -a 2 -x {1.0 49.0 1 ------- null}
+ -t 0.148 -s 1 -d 0 -p cbr -e 1000 -c 2 -i 6 -a 2 -x {1.0 49.0 6 ------- null}
- -t 0.148 -s 1 -d 0 -p cbr -e 1000 -c 2 -i 6 -a 2 -x {1.0 49.0 6 ------- null}
h -t 0.148 -s 1 -d 0 -p cbr -e 1000 -c 2 -i 6 -a 2 -x {1.0 49.0 -1 ------- null}
r -t 0.15 -s 1 -d 0 -p cbr -e 1000 -c 2 -i 4 -a 2 -x {1.0 49.0 4 ------- null}
+ -t 0.15 -s 0 -d 49 -p cbr -e 1000 -c 2 -i 4 -a 2 -x {1.0 49.0 4 ------- null}
- -t 0.15 -s 0 -d 49 -p cbr -e 1000 -c 2 -i 4 -a 2 -x {1.0 49.0 4 ------- null}
h -t 0.15 -s 0 -d 49 -p cbr -e 1000 -c 2 -i 4 -a 2 -x {1.0 49.0 -1 ------- null}
r -t 0.152 -s 0 -d 49 -p cbr -e 1000 -c 2 -i 2 -a 2 -x {1.0 49.0 2 ------- null}
+ -t 0.156 -s 1 -d 0 -p cbr -e 1000 -c 2 -i 7 -a 2 -x {1.0 49.0 7 ------- null}
- -t 0.156 -s 1 -d 0 -p cbr -e 1000 -c 2 -i 7 -a 2 -x {1.0 49.0 7 ------- null}
h -t 0.156 -s 1 -d 0 -p cbr -e 1000 -c 2 -i 7 -a 2 -x {1.0 49.0 -1 ------- null}
r -t 0.158 -s 1 -d 0 -p cbr -e 1000 -c 2 -i 5 -a 2 -x {1.0 49.0 5 ------- null}
+ -t 0.158 -s 0 -d 49 -p cbr -e 1000 -c 2 -i 5 -a 2 -x {1.0 49.0 5 ------- null}
- -t 0.158 -s 0 -d 49 -p cbr -e 1000 -c 2 -i 5 -a 2 -x {1.0 49.0 5 ------- null}
h -t 0.158 -s 0 -d 49 -p cbr -e 1000 -c 2 -i 5 -a 2 -x {1.0 49.0 -1 ------- null}
r -t 0.16 -s 0 -d 49 -p cbr -e 1000 -c 2 -i 3 -a 2 -x {1.0 49.0 3 ------- null}
+ -t 0.164 -s 1 -d 0 -p cbr -e 1000 -c 2 -i 8 -a 2 -x {1.0 49.0 8 ------- null}
- -t 0.164 -s 1 -d 0 -p cbr -e 1000 -c 2 -i 8 -a 2 -x {1.0 49.0 8 ------- null}
h -t 0.164 -s 1 -d 0 -p cbr -e 1000 -c 2 -i 8 -a 2 -x {1.0 49.0 -1 ------- null}
r -t 0.166 -s 1 -d 0 -p cbr -e 1000 -c 2 -i 6 -a 2 -x {1.0 49.0 6 ------- null}
+ -t 0.166 -s 0 -d 49 -p cbr -e 1000 -c 2 -i 6 -a 2 -x {1.0 49.0 6 ------- null}
- -t 0.166 -s 0 -d 49 -p cbr -e 1000 -c 2 -i 6 -a 2 -x {1.0 49.0 6 ------- null}
h -t 0.166 -s 0 -d 49 -p cbr -e 1000 -c 2 -i 6 -a 2 -x {1.0 49.0 -1 ------- null}
r -t 0.168 -s 0 -d 49 -p cbr -e 1000 -c 2 -i 4 -a 2 -x {1.0 49.0 4 ------- null}
+ -t 0.172 -s 1 -d 0 -p cbr -e 1000 -c 2 -i 9 -a 2 -x {1.0 49.0 9 ------- null}
- -t 0.172 -s 1 -d 0 -p cbr -e 1000 -c 2 -i 9 -a 2 -x {1.0 49.0 9 ------- null}
h -t 0.172 -s 1 -d 0 -p cbr -e 1000 -c 2 -i 9 -a 2 -x {1.0 49.0 -1 ------- null}
r -t 0.174 -s 1 -d 0 -p cbr -e 1000 -c 2 -i 7 -a 2 -x {1.0 49.0 7 ------- null}
+ -t 0.174 -s 0 -d 49 -p cbr -e 1000 -c 2 -i 7 -a 2 -x {1.0 49.0 7 ------- null}
- -t 0.174 -s 0 -d 49 -p cbr -e 1000 -c 2 -i 7 -a 2 -x {1.0 49.0 7 ------- null}
h -t 0.174 -s 0 -d 49 -p cbr -e 1000 -c 2 -i 7 -a 2 -x {1.0 49.0 -1 ------- null}
r -t 0.176 -s 0 -d 49 -p cbr -e 1000 -c 2 -i 5 -a 2 -x {1.0 49.0 5 ------- null}
+ -t 0.18 -s 1 -d 0 -p cbr -e 1000 -c 2 -i 10 -a 2 -x {1.0 49.0 10 ------- null}
- -t 0.18 -s 1 -d 0 -p cbr -e 1000 -c 2 -i 10 -a 2 -x {1.0 49.0 10 ------- null}
h -t 0.18 -s 1 -d 0 -p cbr -e 1000 -c 2 -i 10 -a 2 -x {1.0 49.0 -1 ------- null}
r -t 0.182 -s 1 -d 0 -p cbr -e 1000 -c 2 -i 8 -a 2 -x {1.0 49.0 8 ------- null}
+ -t 0.182 -s 0 -d 49 -p cbr -e 1000 -c 2 -i 8 -a 2 -x {1.0 49.0 8 ------- null}
- -t 0.182 -s 0 -d 49 -p cbr -e 1000 -c 2 -i 8 -a 2 -x {1.0 49.0 8 ------- null}
h -t 0.182 -s 0 -d 49 -p cbr -e 1000 -c 2 -i 8 -a 2 -x {1.0 49.0 -1 ------- null}
r -t 0.184 -s 0 -d 49 -p cbr -e 1000 -c 2 -i 6 -a 2 -x {1.0 49.0 6 ------- null}
+ -t 0.188 -s 1 -d 0 -p cbr -e 1000 -c 2 -i 11 -a 2 -x {1.0 49.0 11 ------- null}
- -t 0.188 -s 1 -d 0 -p cbr -e 1000 -c 2 -i 11 -a 2 -x {1.0 49.0 11 ------- null}
h -t 0.188 -s 1 -d 0 -p cbr -e 1000 -c 2 -i 11 -a 2 -x {1.0 49.0 -1 ------- null}
r -t 0.19 -s 1 -d 0 -p cbr -e 1000 -c 2 -i 9 -a 2 -x {1.0 49.0 9 ------- null}
+ -t 0.19 -s 0 -d 49 -p cbr -e 1000 -c 2 -i 9 -a 2 -x {1.0 49.0 9 ------- null}
- -t 0.19 -s 0 -d 49 -p cbr -e 1000 -c 2 -i 9 -a 2 -x {1.0 49.0 9 ------- null}
h -t 0.19 -s 0 -d 49 -p cbr -e 1000 -c 2 -i 9 -a 2 -x {1.0 49.0 -1 ------- null}
r -t 0.192 -s 0 -d 49 -p cbr -e 1000 -c 2 -i 7 -a 2 -x {1.0 49.0 7 ------- null}
+ -t 0.196 -s 1 -d 0 -p cbr -e 1000 -c 2 -i 12 -a 2 -x {1.0 49.0 12 ------- null}
- -t 0.196 -s 1 -d 0 -p cbr -e 1000 -c 2 -i 12 -a 2 -x {1.0 49.0 12 ------- null}
h -t 0.196 -s 1 -d 0 -p cbr -e 1000 -c 2 -i 12 -a 2 -x {1.0 49.0 -1 ------- null}
r -t 0.198 -s 1 -d 0 -p cbr -e 1000 -c 2 -i 10 -a 2 -x {1.0 49.0 10 ------- null}
+ -t 0.198 -s 0 -d 49 -p cbr -e 1000 -c 2 -i 10 -a 2 -x {1.0 49.0 10 ------- null}
- -t 0.198 -s 0 -d 49 -p cbr -e 1000 -c 2 -i 10 -a 2 -x {1.0 49.0 10 ------- null}
h -t 0.198 -s 0 -d 49 -p cbr -e 1000 -c 2 -i 10 -a 2 -x {1.0 49.0 -1 ------- null}
r -t 0.2 -s 0 -d 49 -p cbr -e 1000 -c 2 -i 8 -a 2 -x {1.0 49.0 8 ------- null}
+ -t 0.204 -s 1 -d 0 -p cbr -e 1000 -c 2 -i 13 -a 2 -x {1.0 49.0 13 ------- null}
- -t 0.204 -s 1 -d 0 -p cbr -e 1000 -c 2 -i 13 -a 2 -x {1.0 49.0 13 ------- null}
h -t 0.204 -s 1 -d 0 -p cbr -e 1000 -c 2 -i 13 -a 2 -x {1.0 49.0 -1 ------- null}
r -t 0.206 -s 1 -d 0 -p cbr -e 1000 -c 2 -i 11 -a 2 -x {1.0 49.0 11 ------- null}
+ -t 0.206 -s 0 -d 49 -p cbr -e 1000 -c 2 -i 11 -a 2 -x {1.0 49.0 11 ------- null}
- -t 0.206 -s 0 -d 49 -p cbr -e 1000 -c 2 -i 11 -a 2 -x {1.0 49.0 11 ------- null}
h -t 0.206 -s 0 -d 49 -p cbr -e 1000 -c 2 -i 11 -a 2 -x {1.0 49.0 -1 ------- null}
r -t 0.208 -s 0 -d 49 -p cbr -e 1000 -c 2 -i 9 -a 2 -x {1.0 49.0 9 ------- null}
+ -t 0.212 -s 1 -d 0 -p cbr -e 1000 -c 2 -i 14 -a 2 -x {1.0 49.0 14 ------- null}
- -t 0.212 -s 1 -d 0 -p cbr -e 1000 -c 2 -i 14 -a 2 -x {1.0 49.0 14 ------- null}
h -t 0.212 -s 1 -d 0 -p cbr -e 1000 -c 2 -i 14 -a 2 -x {1.0 49.0 -1 ------- null}
r -t 0.214 -s 1 -d 0 -p cbr -e 1000 -c 2 -i 12 -a 2 -x {1.0 49.0 12 ------- null}
+ -t 0.214 -s 0 -d 49 -p cbr -e 1000 -c 2 -i 12 -a 2 -x {1.0 49.0 12 ------- null}
- -t 0.214 -s 0 -d 49 -p cbr -e 1000 -c 2 -i 12 -a 2 -x {1.0 49.0 12 ------- null}
h -t 0.214 -s 0 -d 49 -p cbr -e 1000 -c 2 -i 12 -a 2 -x {1.0 49.0 -1 ------- null}
r -t 0.216 -s 0 -d 49 -p cbr -e 1000 -c 2 -i 10 -a 2 -x {1.0 49.0 10 ------- null}
+ -t 0.22 -s 1 -d 0 -p cbr -e 1000 -c 2 -i 15 -a 2 -x {1.0 49.0 15 ------- null}
- -t 0.22 -s 1 -d 0 -p cbr -e 1000 -c 2 -i 15 -a 2 -x {1.0 49.0 15 ------- null}
h -t 0.22 -s 1 -d 0 -p cbr -e 1000 -c 2 -i 15 -a 2 -x {1.0 49.0 -1 ------- null}
r -t 0.222 -s 1 -d 0 -p cbr -e 1000 -c 2 -i 13 -a 2 -x {1.0 49.0 13 ------- null}
+ -t 0.222 -s 0 -d 49 -p cbr -e 1000 -c 2 -i 13 -a 2 -x {1.0 49.0 13 ------- null}
- -t 0.222 -s 0 -d 49 -p cbr -e 1000 -c 2 -i 13 -a 2 -x {1.0 49.0 13 ------- null}
h -t 0.222 -s 0 -d 49 -p cbr -e 1000 -c 2 -i 13 -a 2 -x {1.0 49.0 -1 ------- null}
r -t 0.224 -s 0 -d 49 -p cbr -e 1000 -c 2 -i 11 -a 2 -x {1.0 49.0 11 ------- null}
+ -t 0.228 -s 1 -d 0 -p cbr -e 1000 -c 2 -i 16 -a 2 -x {1.0 49.0 16 ------- null}
- -t 0.228 -s 1 -d 0 -p cbr -e 1000 -c 2 -i 16 -a 2 -x {1.0 49.0 16 ------- null}
h -t 0.228 -s 1 -d 0 -p cbr -e 1000 -c 2 -i 16 -a 2 -x {1.0 49.0 -1 ------- null}
r -t 0.23 -s 1 -d 0 -p cbr -e 1000 -c 2 -i 14 -a 2 -x {1.0 49.0 14 ------- null}
+ -t 0.23 -s 0 -d 49 -p cbr -e 1000 -c 2 -i 14 -a 2 -x {1.0 49.0 14 ------- null}
- -t 0.23 -s 0 -d 49 -p cbr -e 1000 -c 2 -i 14 -a 2 -x {1.0 49.0 14 ------- null}
h -t 0.23 -s 0 -d 49 -p cbr -e 1000 -c 2 -i 14 -a 2 -x {1.0 49.0 -1 ------- null}
r -t 0.232 -s 0 -d 49 -p cbr -e 1000 -c 2 -i 12 -a 2 -x {1.0 49.0 12 ------- null}
+ -t 0.236 -s 1 -d 0 -p cbr -e 1000 -c 2 -i 17 -a 2 -x {1.0 49.0 17 ------- null}
- -t 0.236 -s 1 -d 0 -p cbr -e 1000 -c 2 -i 17 -a 2 -x {1.0 49.0 17 ------- null}
h -t 0.236 -s 1 -d 0 -p cbr -e 1000 -c 2 -i 17 -a 2 -x {1.0 49.0 -1 ------- null}
r -t 0.238 -s 1 -d 0 -p cbr -e 1000 -c 2 -i 15 -a 2 -x {1.0 49.0 15 ------- null}
+ -t 0.238 -s 0 -d 49 -p cbr -e 1000 -c 2 -i 15 -a 2 -x {1.0 49.0 15 ------- null}
- -t 0.238 -s 0 -d 49 -p cbr -e 1000 -c 2 -i 15 -a 2 -x {1.0 49.0 15 ------- null}
h -t 0.238 -s 0 -d 49 -p cbr -e 1000 -c 2 -i 15 -a 2 -x {1.0 49.0 -1 ------- null}
r -t 0.24 -s 0 -d 49 -p cbr -e 1000 -c 2 -i 13 -a 2 -x {1.0 49.0 13 ------- null}
+ -t 0.244 -s 1 -d 0 -p cbr -e 1000 -c 2 -i 18 -a 2 -x {1.0 49.0 18 ------- null}
- -t 0.244 -s 1 -d 0 -p cbr -e 1000 -c 2 -i 18 -a 2 -x {1.0 49.0 18 ------- null}
h -t 0.244 -s 1 -d 0 -p cbr -e 1000 -c 2 -i 18 -a 2 -x {1.0 49.0 -1 ------- null}
r -t 0.246 -s 1 -d 0 -p cbr -e 1000 -c 2 -i 16 -a 2 -x {1.0 49.0 16 ------- null}
+ -t 0.246 -s 0 -d 49 -p cbr -e 1000 -c 2 -i 16 -a 2 -x {1.0 49.0 16 ------- null}
- -t 0.246 -s 0 -d 49 -p cbr -e 1000 -c 2 -i 16 -a 2 -x {1.0 49.0 16 ------- null}
h -t 0.246 -s 0 -d 49 -p cbr -e 1000 -c 2 -i 16 -a 2 -x {1.0 49.0 -1 ------- null}
r -t 0.248 -s 0 -d 49 -p cbr -e 1000 -c 2 -i 14 -a 2 -x {1.0 49.0 14 ------- null}
+ -t 0.252 -s 1 -d 0 -p cbr -e 1000 -c 2 -i 19 -a 2 -x {1.0 49.0 19 ------- null}
- -t 0.252 -s 1 -d 0 -p cbr -e 1000 -c 2 -i 19 -a 2 -x {1.0 49.0 19 ------- null}
h -t 0.252 -s 1 -d 0 -p cbr -e 1000 -c 2 -i 19 -a 2 -x {1.0 49.0 -1 ------- null}
r -t 0.254 -s 1 -d 0 -p cbr -e 1000 -c 2 -i 17 -a 2 -x {1.0 49.0 17 ------- null}
+ -t 0.254 -s 0 -d 49 -p cbr -e 1000 -c 2 -i 17 -a 2 -x {1.0 49.0 17 ------- null}
- -t 0.254 -s 0 -d 49 -p cbr -e 1000 -c 2 -i 17 -a 2 -x {1.0 49.0 17 ------- null}
h -t 0.254 -s 0 -d 49 -p cbr -e 1000 -c 2 -i 17 -a 2 -x {1.0 49.0 -1 ------- null}
r -t 0.256 -s 0 -d 49 -p cbr -e 1000 -c 2 -i 15 -a 2 -x {1.0 49.0 15 ------- null}
+ -t 0.26 -s 1 -d 0 -p cbr -e 1000 -c 2 -i 20 -a 2 -x {1.0 49.0 20 ------- null}
- -t 0.26 -s 1 -d 0 -p cbr -e 1000 -c 2 -i 20 -a 2 -x {1.0 49.0 20 ------- null}
h -t 0.26 -s 1 -d 0 -p cbr -e 1000 -c 2 -i 20 -a 2 -x {1.0 49.0 -1 ------- null}
r -t 0.262 -s 1 -d 0 -p cbr -e 1000 -c 2 -i 18 -a 2 -x {1.0 49.0 18 ------- null}
+ -t 0.262 -s 0 -d 49 -p cbr -e 1000 -c 2 -i 18 -a 2 -x {1.0 49.0 18 ------- null}
- -t 0.262 -s 0 -d 49 -p cbr -e 1000 -c 2 -i 18 -a 2 -x {1.0 49.0 18 ------- null}
h -t 0.262 -s 0 -d 49 -p cbr -e 1000 -c 2 -i 18 -a 2 -x {1.0 49.0 -1 ------- null}
r -t 0.264 -s 0 -d 49 -p cbr -e 1000 -c 2 -i 16 -a 2 -x {1.0 49.0 16 ------- null}
+ -t 0.268 -s 1 -d 0 -p cbr -e 1000 -c 2 -i 21 -a 2 -x {1.0 49.0 21 ------- null}
- -t 0.268 -s 1 -d 0 -p cbr -e 1000 -c 2 -i 21 -a 2 -x {1.0 49.0 21 ------- null}
h -t 0.268 -s 1 -d 0 -p cbr -e 1000 -c 2 -i 21 -a 2 -x {1.0 49.0 -1 ------- null}
r -t 0.27 -s 1 -d 0 -p cbr -e 1000 -c 2 -i 19 -a 2 -x {1.0 49.0 19 ------- null}
+ -t 0.27 -s 0 -d 49 -p cbr -e 1000 -c 2 -i 19 -a 2 -x {1.0 49.0 19 ------- null}
- -t 0.27 -s 0 -d 49 -p cbr -e 1000 -c 2 -i 19 -a 2 -x {1.0 49.0 19 ------- null}
h -t 0.27 -s 0 -d 49 -p cbr -e 1000 -c 2 -i 19 -a 2 -x {1.0 49.0 -1 ------- null}
r -t 0.272 -s 0 -d 49 -p cbr -e 1000 -c 2 -i 17 -a 2 -x {1.0 49.0 17 ------- null}
+ -t 0.276 -s 1 -d 0 -p cbr -e 1000 -c 2 -i 22 -a 2 -x {1.0 49.0 22 ------- null}
- -t 0.276 -s 1 -d 0 -p cbr -e 1000 -c 2 -i 22 -a 2 -x {1.0 49.0 22 ------- null}
h -t 0.276 -s 1 -d 0 -p cbr -e 1000 -c 2 -i 22 -a 2 -x {1.0 49.0 -1 ------- null}
r -t 0.278 -s 1 -d 0 -p cbr -e 1000 -c 2 -i 20 -a 2 -x {1.0 49.0 20 ------- null}
+ -t 0.278 -s 0 -d 49 -p cbr -e 1000 -c 2 -i 20 -a 2 -x {1.0 49.0 20 ------- null}
- -t 0.278 -s 0 -d 49 -p cbr -e 1000 -c 2 -i 20 -a 2 -x {1.0 49.0 20 ------- null}
h -t 0.278 -s 0 -d 49 -p cbr -e 1000 -c 2 -i 20 -a 2 -x {1.0 49.0 -1 ------- null}
r -t 0.28 -s 0 -d 49 -p cbr -e 1000 -c 2 -i 18 -a 2 -x {1.0 49.0 18 ------- null}
+ -t 0.284 -s 1 -d 0 -p cbr -e 1000 -c 2 -i 23 -a 2 -x {1.0 49.0 23 ------- null}
- -t 0.284 -s 1 -d 0 -p cbr -e 1000 -c 2 -i 23 -a 2 -x {1.0 49.0 23 ------- null}
h -t 0.284 -s 1 -d 0 -p cbr -e 1000 -c 2 -i 23 -a 2 -x {1.0 49.0 -1 ------- null}
r -t 0.286 -s 1 -d 0 -p cbr -e 1000 -c 2 -i 21 -a 2 -x {1.0 49.0 21 ------- null}
+ -t 0.286 -s 0 -d 49 -p cbr -e 1000 -c 2 -i 21 -a 2 -x {1.0 49.0 21 ------- null}
- -t 0.286 -s 0 -d 49 -p cbr -e 1000 -c 2 -i 21 -a 2 -x {1.0 49.0 21 ------- null}
h -t 0.286 -s 0 -d 49 -p cbr -e 1000 -c 2 -i 21 -a 2 -x {1.0 49.0 -1 ------- null}
r -t 0.288 -s 0 -d 49 -p cbr -e 1000 -c 2 -i 19 -a 2 -x {1.0 49.0 19 ------- null}
+ -t 0.292 -s 1 -d 0 -p cbr -e 1000 -c 2 -i 24 -a 2 -x {1.0 49.0 24 ------- null}
- -t 0.292 -s 1 -d 0 -p cbr -e 1000 -c 2 -i 24 -a 2 -x {1.0 49.0 24 ------- null}
h -t 0.292 -s 1 -d 0 -p cbr -e 1000 -c 2 -i 24 -a 2 -x {1.0 49.0 -1 ------- null}
r -t 0.294 -s 1 -d 0 -p cbr -e 1000 -c 2 -i 22 -a 2 -x {1.0 49.0 22 ------- null}
+ -t 0.294 -s 0 -d 49 -p cbr -e 1000 -c 2 -i 22 -a 2 -x {1.0 49.0 22 ------- null}
- -t 0.294 -s 0 -d 49 -p cbr -e 1000 -c 2 -i 22 -a 2 -x {1.0 49.0 22 ------- null}
h -t 0.294 -s 0 -d 49 -p cbr -e 1000 -c 2 -i 22 -a 2 -x {1.0 49.0 -1 ------- null}
r -t 0.296 -s 0 -d 49 -p cbr -e 1000 -c 2 -i 20 -a 2 -x {1.0 49.0 20 ------- null}
+ -t 0.3 -s 1 -d 0 -p cbr -e 1000 -c 2 -i 25 -a 2 -x {1.0 49.0 25 ------- null}
- -t 0.3 -s 1 -d 0 -p cbr -e 1000 -c 2 -i 25 -a 2 -x {1.0 49.0 25 ------- null}
h -t 0.3 -s 1 -d 0 -p cbr -e 1000 -c 2 -i 25 -a 2 -x {1.0 49.0 -1 ------- null}
r -t 0.302 -s 1 -d 0 -p cbr -e 1000 -c 2 -i 23 -a 2 -x {1.0 49.0 23 ------- null}
+ -t 0.302 -s 0 -d 49 -p cbr -e 1000 -c 2 -i 23 -a 2 -x {1.0 49.0 23 ------- null}
- -t 0.302 -s 0 -d 49 -p cbr -e 1000 -c 2 -i 23 -a 2 -x {1.0 49.0 23 ------- null}
h -t 0.302 -s 0 -d 49 -p cbr -e 1000 -c 2 -i 23 -a 2 -x {1.0 49.0 -1 ------- null}
r -t 0.304 -s 0 -d 49 -p cbr -e 1000 -c 2 -i 21 -a 2 -x {1.0 49.0 21 ------- null}
+ -t 0.308 -s 1 -d 0 -p cbr -e 1000 -c 2 -i 26 -a 2 -x {1.0 49.0 26 ------- null}
- -t 0.308 -s 1 -d 0 -p cbr -e 1000 -c 2 -i 26 -a 2 -x {1.0 49.0 26 ------- null}
h -t 0.308 -s 1 -d 0 -p cbr -e 1000 -c 2 -i 26 -a 2 -x {1.0 49.0 -1 ------- null}
r -t 0.31 -s 1 -d 0 -p cbr -e 1000 -c 2 -i 24 -a 2 -x {1.0 49.0 24 ------- null}
+ -t 0.31 -s 0 -d 49 -p cbr -e 1000 -c 2 -i 24 -a 2 -x {1.0 49.0 24 ------- null}
- -t 0.31 -s 0 -d 49 -p cbr -e 1000 -c 2 -i 24 -a 2 -x {1.0 49.0 24 ------- null}
h -t 0.31 -s 0 -d 49 -p cbr -e 1000 -c 2 -i 24 -a 2 -x {1.0 49.0 -1 ------- null}
r -t 0.312 -s 0 -d 49 -p cbr -e 1000 -c 2 -i 22 -a 2 -x {1.0 49.0 22 ------- null}
+ -t 0.316 -s 1 -d 0 -p cbr -e 1000 -c 2 -i 27 -a 2 -x {1.0 49.0 27 ------- null}
- -t 0.316 -s 1 -d 0 -p cbr -e 1000 -c 2 -i 27 -a 2 -x {1.0 49.0 27 ------- null}
h -t 0.316 -s 1 -d 0 -p cbr -e 1000 -c 2 -i 27 -a 2 -x {1.0 49.0 -1 ------- null}
r -t 0.318 -s 1 -d 0 -p cbr -e 1000 -c 2 -i 25 -a 2 -x {1.0 49.0 25 ------- null}
+ -t 0.318 -s 0 -d 49 -p cbr -e 1000 -c 2 -i 25 -a 2 -x {1.0 49.0 25 ------- null}
- -t 0.318 -s 0 -d 49 -p cbr -e 1000 -c 2 -i 25 -a 2 -x {1.0 49.0 25 ------- null}
h -t 0.318 -s 0 -d 49 -p cbr -e 1000 -c 2 -i 25 -a 2 -x {1.0 49.0 -1 ------- null}
r -t 0.32 -s 0 -d 49 -p cbr -e 1000 -c 2 -i 23 -a 2 -x {1.0 49.0 23 ------- null}
+ -t 0.324 -s 1 -d 0 -p cbr -e 1000 -c 2 -i 28 -a 2 -x {1.0 49.0 28 ------- null}
- -t 0.324 -s 1 -d 0 -p cbr -e 1000 -c 2 -i 28 -a 2 -x {1.0 49.0 28 ------- null}
h -t 0.324 -s 1 -d 0 -p cbr -e 1000 -c 2 -i 28 -a 2 -x {1.0 49.0 -1 ------- null}
r -t 0.326 -s 1 -d 0 -p cbr -e 1000 -c 2 -i 26 -a 2 -x {1.0 49.0 26 ------- null}
+ -t 0.326 -s 0 -d 49 -p cbr -e 1000 -c 2 -i 26 -a 2 -x {1.0 49.0 26 ------- null}
- -t 0.326 -s 0 -d 49 -p cbr -e 1000 -c 2 -i 26 -a 2 -x {1.0 49.0 26 ------- null}
h -t 0.326 -s 0 -d 49 -p cbr -e 1000 -c 2 -i 26 -a 2 -x {1.0 49.0 -1 ------- null}
r -t 0.328 -s 0 -d 49 -p cbr -e 1000 -c 2 -i 24 -a 2 -x {1.0 49.0 24 ------- null}
+ -t 0.332 -s 1 -d 0 -p cbr -e 1000 -c 2 -i 29 -a 2 -x {1.0 49.0 29 ------- null}
- -t 0.332 -s 1 -d 0 -p cbr -e 1000 -c 2 -i 29 -a 2 -x {1.0 49.0 29 ------- null}
h -t 0.332 -s 1 -d 0 -p cbr -e 1000 -c 2 -i 29 -a 2 -x {1.0 49.0 -1 ------- null}
r -t 0.334 -s 1 -d 0 -p cbr -e 1000 -c 2 -i 27 -a 2 -x {1.0 49.0 27 ------- null}
+ -t 0.334 -s 0 -d 49 -p cbr -e 1000 -c 2 -i 27 -a 2 -x {1.0 49.0 27 ------- null}
- -t 0.334 -s 0 -d 49 -p cbr -e 1000 -c 2 -i 27 -a 2 -x {1.0 49.0 27 ------- null}
h -t 0.334 -s 0 -d 49 -p cbr -e 1000 -c 2 -i 27 -a 2 -x {1.0 49.0 -1 ------- null}
r -t 0.336 -s 0 -d 49 -p cbr -e 1000 -c 2 -i 25 -a 2 -x {1.0 49.0 25 ------- null}
+ -t 0.34 -s 1 -d 0 -p cbr -e 1000 -c 2 -i 30 -a 2 -x {1.0 49.0 30 ------- null}
- -t 0.34 -s 1 -d 0 -p cbr -e 1000 -c 2 -i 30 -a 2 -x {1.0 49.0 30 ------- null}
h -t 0.34 -s 1 -d 0 -p cbr -e 1000 -c 2 -i 30 -a 2 -x {1.0 49.0 -1 ------- null}
r -t 0.342 -s 1 -d 0 -p cbr -e 1000 -c 2 -i 28 -a 2 -x {1.0 49.0 28 ------- null}
+ -t 0.342 -s 0 -d 49 -p cbr -e 1000 -c 2 -i 28 -a 2 -x {1.0 49.0 28 ------- null}
- -t 0.342 -s 0 -d 49 -p cbr -e 1000 -c 2 -i 28 -a 2 -x {1.0 49.0 28 ------- null}
h -t 0.342 -s 0 -d 49 -p cbr -e 1000 -c 2 -i 28 -a 2 -x {1.0 49.0 -1 ------- null}
r -t 0.344 -s 0 -d 49 -p cbr -e 1000 -c 2 -i 26 -a 2 -x {1.0 49.0 26 ------- null}
+ -t 0.348 -s 1 -d 0 -p cbr -e 1000 -c 2 -i 31 -a 2 -x {1.0 49.0 31 ------- null}
- -t 0.348 -s 1 -d 0 -p cbr -e 1000 -c 2 -i 31 -a 2 -x {1.0 49.0 31 ------- null}
h -t 0.348 -s 1 -d 0 -p cbr -e 1000 -c 2 -i 31 -a 2 -x {1.0 49.0 -1 ------- null}
r -t 0.35 -s 1 -d 0 -p cbr -e 1000 -c 2 -i 29 -a 2 -x {1.0 49.0 29 ------- null}
+ -t 0.35 -s 0 -d 49 -p cbr -e 1000 -c 2 -i 29 -a 2 -x {1.0 49.0 29 ------- null}
- -t 0.35 -s 0 -d 49 -p cbr -e 1000 -c 2 -i 29 -a 2 -x {1.0 49.0 29 ------- null}
h -t 0.35 -s 0 -d 49 -p cbr -e 1000 -c 2 -i 29 -a 2 -x {1.0 49.0 -1 ------- null}
r -t 0.352 -s 0 -d 49 -p cbr -e 1000 -c 2 -i 27 -a 2 -x {1.0 49.0 27 ------- null}
+ -t 0.356 -s 1 -d 0 -p cbr -e 1000 -c 2 -i 32 -a 2 -x {1.0 49.0 32 ------- null}
- -t 0.356 -s 1 -d 0 -p cbr -e 1000 -c 2 -i 32 -a 2 -x {1.0 49.0 32 ------- null}
h -t 0.356 -s 1 -d 0 -p cbr -e 1000 -c 2 -i 32 -a 2 -x {1.0 49.0 -1 ------- null}
r -t 0.358 -s 1 -d 0 -p cbr -e 1000 -c 2 -i 30 -a 2 -x {1.0 49.0 30 ------- null}
+ -t 0.358 -s 0 -d 49 -p cbr -e 1000 -c 2 -i 30 -a 2 -x {1.0 49.0 30 ------- null}
- -t 0.358 -s 0 -d 49 -p cbr -e 1000 -c 2 -i 30 -a 2 -x {1.0 49.0 30 ------- null}
h -t 0.358 -s 0 -d 49 -p cbr -e 1000 -c 2 -i 30 -a 2 -x {1.0 49.0 -1 ------- null}
r -t 0.36 -s 0 -d 49 -p cbr -e 1000 -c 2 -i 28 -a 2 -x {1.0 49.0 28 ------- null}
+ -t 0.364 -s 1 -d 0 -p cbr -e 1000 -c 2 -i 33 -a 2 -x {1.0 49.0 33 ------- null}
- -t 0.364 -s 1 -d 0 -p cbr -e 1000 -c 2 -i 33 -a 2 -x {1.0 49.0 33 ------- null}
h -t 0.364 -s 1 -d 0 -p cbr -e 1000 -c 2 -i 33 -a 2 -x {1.0 49.0 -1 ------- null}
r -t 0.366 -s 1 -d 0 -p cbr -e 1000 -c 2 -i 31 -a 2 -x {1.0 49.0 31 ------- null}
+ -t 0.366 -s 0 -d 49 -p cbr -e 1000 -c 2 -i 31 -a 2 -x {1.0 49.0 31 ------- null}
- -t 0.366 -s 0 -d 49 -p cbr -e 1000 -c 2 -i 31 -a 2 -x {1.0 49.0 31 ------- null}
h -t 0.366 -s 0 -d 49 -p cbr -e 1000 -c 2 -i 31 -a 2 -x {1.0 49.0 -1 ------- null}
r -t 0.368 -s 0 -d 49 -p cbr -e 1000 -c 2 -i 29 -a 2 -x {1.0 49.0 29 ------- null}
+ -t 0.372 -s 1 -d 0 -p cbr -e 1000 -c 2 -i 34 -a 2 -x {1.0 49.0 34 ------- null}
- -t 0.372 -s 1 -d 0 -p cbr -e 1000 -c 2 -i 34 -a 2 -x {1.0 49.0 34 ------- null}
h -t 0.372 -s 1 -d 0 -p cbr -e 1000 -c 2 -i 34 -a 2 -x {1.0 49.0 -1 ------- null}
r -t 0.374 -s 1 -d 0 -p cbr -e 1000 -c 2 -i 32 -a 2 -x {1.0 49.0 32 ------- null}
+ -t 0.374 -s 0 -d 49 -p cbr -e 1000 -c 2 -i 32 -a 2 -x {1.0 49.0 32 ------- null}
- -t 0.374 -s 0 -d 49 -p cbr -e 1000 -c 2 -i 32 -a 2 -x {1.0 49.0 32 ------- null}
h -t 0.374 -s 0 -d 49 -p cbr -e 1000 -c 2 -i 32 -a 2 -x {1.0 49.0 -1 ------- null}
r -t 0.376 -s 0 -d 49 -p cbr -e 1000 -c 2 -i 30 -a 2 -x {1.0 49.0 30 ------- null}
+ -t 0.38 -s 1 -d 0 -p cbr -e 1000 -c 2 -i 35 -a 2 -x {1.0 49.0 35 ------- null}
- -t 0.38 -s 1 -d 0 -p cbr -e 1000 -c 2 -i 35 -a 2 -x {1.0 49.0 35 ------- null}
h -t 0.38 -s 1 -d 0 -p cbr -e 1000 -c 2 -i 35 -a 2 -x {1.0 49.0 -1 ------- null}
r -t 0.382 -s 1 -d 0 -p cbr -e 1000 -c 2 -i 33 -a 2 -x {1.0 49.0 33 ------- null}
+ -t 0.382 -s 0 -d 49 -p cbr -e 1000 -c 2 -i 33 -a 2 -x {1.0 49.0 33 ------- null}
- -t 0.382 -s 0 -d 49 -p cbr -e 1000 -c 2 -i 33 -a 2 -x {1.0 49.0 33 ------- null}
h -t 0.382 -s 0 -d 49 -p cbr -e 1000 -c 2 -i 33 -a 2 -x {1.0 49.0 -1 ------- null}
r -t 0.384 -s 0 -d 49 -p cbr -e 1000 -c 2 -i 31 -a 2 -x {1.0 49.0 31 ------- null}
+ -t 0.388 -s 1 -d 0 -p cbr -e 1000 -c 2 -i 36 -a 2 -x {1.0 49.0 36 ------- null}
- -t 0.388 -s 1 -d 0 -p cbr -e 1000 -c 2 -i 36 -a 2 -x {1.0 49.0 36 ------- null}
h -t 0.388 -s 1 -d 0 -p cbr -e 1000 -c 2 -i 36 -a 2 -x {1.0 49.0 -1 ------- null}
r -t 0.39 -s 1 -d 0 -p cbr -e 1000 -c 2 -i 34 -a 2 -x {1.0 49.0 34 ------- null}
+ -t 0.39 -s 0 -d 49 -p cbr -e 1000 -c 2 -i 34 -a 2 -x {1.0 49.0 34 ------- null}
- -t 0.39 -s 0 -d 49 -p cbr -e 1000 -c 2 -i 34 -a 2 -x {1.0 49.0 34 ------- null}
h -t 0.39 -s 0 -d 49 -p cbr -e 1000 -c 2 -i 34 -a 2 -x {1.0 49.0 -1 ------- null}
r -t 0.392 -s 0 -d 49 -p cbr -e 1000 -c 2 -i 32 -a 2 -x {1.0 49.0 32 ------- null}
+ -t 0.396 -s 1 -d 0 -p cbr -e 1000 -c 2 -i 37 -a 2 -x {1.0 49.0 37 ------- null}
- -t 0.396 -s 1 -d 0 -p cbr -e 1000 -c 2 -i 37 -a 2 -x {1.0 49.0 37 ------- null}
h -t 0.396 -s 1 -d 0 -p cbr -e 1000 -c 2 -i 37 -a 2 -x {1.0 49.0 -1 ------- null}
r -t 0.398 -s 1 -d 0 -p cbr -e 1000 -c 2 -i 35 -a 2 -x {1.0 49.0 35 ------- null}
+ -t 0.398 -s 0 -d 49 -p cbr -e 1000 -c 2 -i 35 -a 2 -x {1.0 49.0 35 ------- null}
- -t 0.398 -s 0 -d 49 -p cbr -e 1000 -c 2 -i 35 -a 2 -x {1.0 49.0 35 ------- null}
h -t 0.398 -s 0 -d 49 -p cbr -e 1000 -c 2 -i 35 -a 2 -x {1.0 49.0 -1 ------- null}
r -t 0.4 -s 0 -d 49 -p cbr -e 1000 -c 2 -i 33 -a 2 -x {1.0 49.0 33 ------- null}
+ -t 0.404 -s 1 -d 0 -p cbr -e 1000 -c 2 -i 38 -a 2 -x {1.0 49.0 38 ------- null}
- -t 0.404 -s 1 -d 0 -p cbr -e 1000 -c 2 -i 38 -a 2 -x {1.0 49.0 38 ------- null}
h -t 0.404 -s 1 -d 0 -p cbr -e 1000 -c 2 -i 38 -a 2 -x {1.0 49.0 -1 ------- null}
r -t 0.406 -s 1 -d 0 -p cbr -e 1000 -c 2 -i 36 -a 2 -x {1.0 49.0 36 ------- null}
+ -t 0.406 -s 0 -d 49 -p cbr -e 1000 -c 2 -i 36 -a 2 -x {1.0 49.0 36 ------- null}
- -t 0.406 -s 0 -d 49 -p cbr -e 1000 -c 2 -i 36 -a 2 -x {1.0 49.0 36 ------- null}
h -t 0.406 -s 0 -d 49 -p cbr -e 1000 -c 2 -i 36 -a 2 -x {1.0 49.0 -1 ------- null}
r -t 0.408 -s 0 -d 49 -p cbr -e 1000 -c 2 -i 34 -a 2 -x {1.0 49.0 34 ------- null}
+ -t 0.412 -s 1 -d 0 -p cbr -e 1000 -c 2 -i 39 -a 2 -x {1.0 49.0 39 ------- null}