+ 0.1 1 0 cbr 1000 ------- 2 1.0 49.0 0 0
- 0.1 1 0 cbr 1000 ------- 2 1.0 49.0 0 0
+ 0.108 1 0 cbr 1000 ------- 2 1.0 49.0 1 1
- 0.108 1 0 cbr 1000 ------- 2 1.0 49.0 1 1
+ 0.116 1 0 cbr 1000 ------- 2 1.0 49.0 2 2
- 0.116 1 0 cbr 1000 ------- 2 1.0 49.0 2 2
r 0.118 1 0 cbr 1000 ------- 2 1.0 49.0 0 0
+ 0.118 0 49 cbr 1000 ------- 2 1.0 49.0 0 0
- 0.118 0 49 cbr 1000 ------- 2 1.0 49.0 0 0
+ 0.124 1 0 cbr 1000 ------- 2 1.0 49.0 3 3
- 0.124 1 0 cbr 1000 ------- 2 1.0 49.0 3 3
r 0.126 1 0 cbr 1000 ------- 2 1.0 49.0 1 1
+ 0.126 0 49 cbr 1000 ------- 2 1.0 49.0 1 1
- 0.126 0 49 cbr 1000 ------- 2 1.0 49.0 1 1
+ 0.132 1 0 cbr 1000 ------- 2 1.0 49.0 4 4
- 0.132 1 0 cbr 1000 ------- 2 1.0 49.0 4 4
r 0.134 1 0 cbr 1000 ------- 2 1.0 49.0 2 2
+ 0.134 0 49 cbr 1000 ------- 2 1.0 49.0 2 2
- 0.134 0 49 cbr 1000 ------- 2 1.0 49.0 2 2
r 0.136 0 49 cbr 1000 ------- 2 1.0 49.0 0 0
+ 0.14 1 0 cbr 1000 ------- 2 1.0 49.0 5 5
- 0.14 1 0 cbr 1000 ------- 2 1.0 49.0 5 5
r 0.142 1 0 cbr 1000 ------- 2 1.0 49.0 3 3
+ 0.142 0 49 cbr 1000 ------- 2 1.0 49.0 3 3
- 0.142 0 49 cbr 1000 ------- 2 1.0 49.0 3 3
r 0.144 0 49 cbr 1000 ------- 2 1.0 49.0 1 1
+ 0.148 1 0 cbr 1000 ------- 2 1.0 49.0 6 6
- 0.148 1 0 cbr 1000 ------- 2 1.0 49.0 6 6
r 0.15 1 0 cbr 1000 ------- 2 1.0 49.0 4 4
+ 0.15 0 49 cbr 1000 ------- 2 1.0 49.0 4 4
- 0.15 0 49 cbr 1000 ------- 2 1.0 49.0 4 4
r 0.152 0 49 cbr 1000 ------- 2 1.0 49.0 2 2
+ 0.156 1 0 cbr 1000 ------- 2 1.0 49.0 7 7
- 0.156 1 0 cbr 1000 ------- 2 1.0 49.0 7 7
r 0.158 1 0 cbr 1000 ------- 2 1.0 49.0 5 5
+ 0.158 0 49 cbr 1000 ------- 2 1.0 49.0 5 5
- 0.158 0 49 cbr 1000 ------- 2 1.0 49.0 5 5
r 0.16 0 49 cbr 1000 ------- 2 1.0 49.0 3 3
+ 0.164 1 0 cbr 1000 ------- 2 1.0 49.0 8 8
- 0.164 1 0 cbr 1000 ------- 2 1.0 49.0 8 8
r 0.166 1 0 cbr 1000 ------- 2 1.0 49.0 6 6
+ 0.166 0 49 cbr 1000 ------- 2 1.0 49.0 6 6
- 0.166 0 49 cbr 1000 ------- 2 1.0 49.0 6 6
r 0.168 0 49 cbr 1000 ------- 2 1.0 49.0 4 4
+ 0.172 1 0 cbr 1000 ------- 2 1.0 49.0 9 9
- 0.172 1 0 cbr 1000 ------- 2 1.0 49.0 9 9
r 0.174 1 0 cbr 1000 ------- 2 1.0 49.0 7 7
+ 0.174 0 49 cbr 1000 ------- 2 1.0 49.0 7 7
- 0.174 0 49 cbr 1000 ------- 2 1.0 49.0 7 7
r 0.176 0 49 cbr 1000 ------- 2 1.0 49.0 5 5
+ 0.18 1 0 cbr 1000 ------- 2 1.0 49.0 10 10
- 0.18 1 0 cbr 1000 ------- 2 1.0 49.0 10 10
r 0.182 1 0 cbr 1000 ------- 2 1.0 49.0 8 8
+ 0.182 0 49 cbr 1000 ------- 2 1.0 49.0 8 8
- 0.182 0 49 cbr 1000 ------- 2 1.0 49.0 8 8
r 0.184 0 49 cbr 1000 ------- 2 1.0 49.0 6 6
+ 0.188 1 0 cbr 1000 ------- 2 1.0 49.0 11 11
- 0.188 1 0 cbr 1000 ------- 2 1.0 49.0 11 11
r 0.19 1 0 cbr 1000 ------- 2 1.0 49.0 9 9
+ 0.19 0 49 cbr 1000 ------- 2 1.0 49.0 9 9
- 0.19 0 49 cbr 1000 ------- 2 1.0 49.0 9 9
r 0.192 0 49 cbr 1000 ------- 2 1.0 49.0 7 7
+ 0.196 1 0 cbr 1000 ------- 2 1.0 49.0 12 12
- 0.196 1 0 cbr 1000 ------- 2 1.0 49.0 12 12
r 0.198 1 0 cbr 1000 ------- 2 1.0 49.0 10 10
+ 0.198 0 49 cbr 1000 ------- 2 1.0 49.0 10 10
- 0.198 0 49 cbr 1000 ------- 2 1.0 49.0 10 10
r 0.2 0 49 cbr 1000 ------- 2 1.0 49.0 8 8
+ 0.204 1 0 cbr 1000 ------- 2 1.0 49.0 13 13
- 0.204 1 0 cbr 1000 ------- 2 1.0 49.0 13 13
r 0.206 1 0 cbr 1000 ------- 2 1.0 49.0 11 11
+ 0.206 0 49 cbr 1000 ------- 2 1.0 49.0 11 11
- 0.206 0 49 cbr 1000 ------- 2 1.0 49.0 11 11
r 0.208 0 49 cbr 1000 ------- 2 1.0 49.0 9 9
+ 0.212 1 0 cbr 1000 ------- 2 1.0 49.0 14 14
- 0.212 1 0 cbr 1000 ------- 2 1.0 49.0 14 14
r 0.214 1 0 cbr 1000 ------- 2 1.0 49.0 12 12
+ 0.214 0 49 cbr 1000 ------- 2 1.0 49.0 12 12
- 0.214 0 49 cbr 1000 ------- 2 1.0 49.0 12 12
r 0.216 0 49 cbr 1000 ------- 2 1.0 49.0 10 10
+ 0.22 1 0 cbr 1000 ------- 2 1.0 49.0 15 15
- 0.22 1 0 cbr 1000 ------- 2 1.0 49.0 15 15
r 0.222 1 0 cbr 1000 ------- 2 1.0 49.0 13 13
+ 0.222 0 49 cbr 1000 ------- 2 1.0 49.0 13 13
- 0.222 0 49 cbr 1000 ------- 2 1.0 49.0 13 13
r 0.224 0 49 cbr 1000 ------- 2 1.0 49.0 11 11
+ 0.228 1 0 cbr 1000 ------- 2 1.0 49.0 16 16
- 0.228 1 0 cbr 1000 ------- 2 1.0 49.0 16 16
r 0.23 1 0 cbr 1000 ------- 2 1.0 49.0 14 14
+ 0.23 0 49 cbr 1000 ------- 2 1.0 49.0 14 14
- 0.23 0 49 cbr 1000 ------- 2 1.0 49.0 14 14
r 0.232 0 49 cbr 1000 ------- 2 1.0 49.0 12 12
+ 0.236 1 0 cbr 1000 ------- 2 1.0 49.0 17 17
- 0.236 1 0 cbr 1000 ------- 2 1.0 49.0 17 17
r 0.238 1 0 cbr 1000 ------- 2 1.0 49.0 15 15
+ 0.238 0 49 cbr 1000 ------- 2 1.0 49.0 15 15
- 0.238 0 49 cbr 1000 ------- 2 1.0 49.0 15 15
r 0.24 0 49 cbr 1000 ------- 2 1.0 49.0 13 13
+ 0.244 1 0 cbr 1000 ------- 2 1.0 49.0 18 18
- 0.244 1 0 cbr 1000 ------- 2 1.0 49.0 18 18
r 0.246 1 0 cbr 1000 ------- 2 1.0 49.0 16 16
+ 0.246 0 49 cbr 1000 ------- 2 1.0 49.0 16 16
- 0.246 0 49 cbr 1000 ------- 2 1.0 49.0 16 16
r 0.248 0 49 cbr 1000 ------- 2 1.0 49.0 14 14
+ 0.252 1 0 cbr 1000 ------- 2 1.0 49.0 19 19
- 0.252 1 0 cbr 1000 ------- 2 1.0 49.0 19 19
r 0.254 1 0 cbr 1000 ------- 2 1.0 49.0 17 17
+ 0.254 0 49 cbr 1000 ------- 2 1.0 49.0 17 17
- 0.254 0 49 cbr 1000 ------- 2 1.0 49.0 17 17
r 0.256 0 49 cbr 1000 ------- 2 1.0 49.0 15 15
+ 0.26 1 0 cbr 1000 ------- 2 1.0 49.0 20 20
- 0.26 1 0 cbr 1000 ------- 2 1.0 49.0 20 20
r 0.262 1 0 cbr 1000 ------- 2 1.0 49.0 18 18
+ 0.262 0 49 cbr 1000 ------- 2 1.0 49.0 18 18
- 0.262 0 49 cbr 1000 ------- 2 1.0 49.0 18 18
r 0.264 0 49 cbr 1000 ------- 2 1.0 49.0 16 16
+ 0.268 1 0 cbr 1000 ------- 2 1.0 49.0 21 21
- 0.268 1 0 cbr 1000 ------- 2 1.0 49.0 21 21
r 0.27 1 0 cbr 1000 ------- 2 1.0 49.0 19 19
+ 0.27 0 49 cbr 1000 ------- 2 1.0 49.0 19 19
- 0.27 0 49 cbr 1000 ------- 2 1.0 49.0 19 19
r 0.272 0 49 cbr 1000 ------- 2 1.0 49.0 17 17
+ 0.276 1 0 cbr 1000 ------- 2 1.0 49.0 22 22
- 0.276 1 0 cbr 1000 ------- 2 1.0 49.0 22 22
r 0.278 1 0 cbr 1000 ------- 2 1.0 49.0 20 20
+ 0.278 0 49 cbr 1000 ------- 2 1.0 49.0 20 20
- 0.278 0 49 cbr 1000 ------- 2 1.0 49.0 20 20
r 0.28 0 49 cbr 1000 ------- 2 1.0 49.0 18 18
+ 0.284 1 0 cbr 1000 ------- 2 1.0 49.0 23 23
- 0.284 1 0 cbr 1000 ------- 2 1.0 49.0 23 23
r 0.286 1 0 cbr 1000 ------- 2 1.0 49.0 21 21
+ 0.286 0 49 cbr 1000 ------- 2 1.0 49.0 21 21
- 0.286 0 49 cbr 1000 ------- 2 1.0 49.0 21 21
r 0.288 0 49 cbr 1000 ------- 2 1.0 49.0 19 19
+ 0.292 1 0 cbr 1000 ------- 2 1.0 49.0 24 24
- 0.292 1 0 cbr 1000 ------- 2 1.0 49.0 24 24
r 0.294 1 0 cbr 1000 ------- 2 1.0 49.0 22 22
+ 0.294 0 49 cbr 1000 ------- 2 1.0 49.0 22 22
- 0.294 0 49 cbr 1000 ------- 2 1.0 49.0 22 22
r 0.296 0 49 cbr 1000 ------- 2 1.0 49.0 20 20
+ 0.3 1 0 cbr 1000 ------- 2 1.0 49.0 25 25
- 0.3 1 0 cbr 1000 ------- 2 1.0 49.0 25 25
r 0.302 1 0 cbr 1000 ------- 2 1.0 49.0 23 23
+ 0.302 0 49 cbr 1000 ------- 2 1.0 49.0 23 23
- 0.302 0 49 cbr 1000 ------- 2 1.0 49.0 23 23
r 0.304 0 49 cbr 1000 ------- 2 1.0 49.0 21 21
+ 0.308 1 0 cbr 1000 ------- 2 1.0 49.0 26 26
- 0.308 1 0 cbr 1000 ------- 2 1.0 49.0 26 26
r 0.31 1 0 cbr 1000 ------- 2 1.0 49.0 24 24
+ 0.31 0 49 cbr 1000 ------- 2 1.0 49.0 24 24
- 0.31 0 49 cbr 1000 ------- 2 1.0 49.0 24 24
r 0.312 0 49 cbr 1000 ------- 2 1.0 49.0 22 22
+ 0.316 1 0 cbr 1000 ------- 2 1.0 49.0 27 27
- 0.316 1 0 cbr 1000 ------- 2 1.0 49.0 27 27
r 0.318 1 0 cbr 1000 ------- 2 1.0 49.0 25 25
+ 0.318 0 49 cbr 1000 ------- 2 1.0 49.0 25 25
- 0.318 0 49 cbr 1000 ------- 2 1.0 49.0 25 25
r 0.32 0 49 cbr 1000 ------- 2 1.0 49.0 23 23
+ 0.324 1 0 cbr 1000 ------- 2 1.0 49.0 28 28
- 0.324 1 0 cbr 1000 ------- 2 1.0 49.0 28 28
r 0.326 1 0 cbr 1000 ------- 2 1.0 49.0 26 26
+ 0.326 0 49 cbr 1000 ------- 2 1.0 49.0 26 26
- 0.326 0 49 cbr 1000 ------- 2 1.0 49.0 26 26
r 0.328 0 49 cbr 1000 ------- 2 1.0 49.0 24 24
+ 0.332 1 0 cbr 1000 ------- 2 1.0 49.0 29 29
- 0.332 1 0 cbr 1000 ------- 2 1.0 49.0 29 29
r 0.334 1 0 cbr 1000 ------- 2 1.0 49.0 27 27
+ 0.334 0 49 cbr 1000 ------- 2 1.0 49.0 27 27
- 0.334 0 49 cbr 1000 ------- 2 1.0 49.0 27 27
r 0.336 0 49 cbr 1000 ------- 2 1.0 49.0 25 25
+ 0.34 1 0 cbr 1000 ------- 2 1.0 49.0 30 30
- 0.34 1 0 cbr 1000 ------- 2 1.0 49.0 30 30
r 0.342 1 0 cbr 1000 ------- 2 1.0 49.0 28 28
+ 0.342 0 49 cbr 1000 ------- 2 1.0 49.0 28 28
- 0.342 0 49 cbr 1000 ------- 2 1.0 49.0 28 28
r 0.344 0 49 cbr 1000 ------- 2 1.0 49.0 26 26
+ 0.348 1 0 cbr 1000 ------- 2 1.0 49.0 31 31
- 0.348 1 0 cbr 1000 ------- 2 1.0 49.0 31 31
r 0.35 1 0 cbr 1000 ------- 2 1.0 49.0 29 29
+ 0.35 0 49 cbr 1000 ------- 2 1.0 49.0 29 29
- 0.35 0 49 cbr 1000 ------- 2 1.0 49.0 29 29
r 0.352 0 49 cbr 1000 ------- 2 1.0 49.0 27 27
+ 0.356 1 0 cbr 1000 ------- 2 1.0 49.0 32 32
- 0.356 1 0 cbr 1000 ------- 2 1.0 49.0 32 32
r 0.358 1 0 cbr 1000 ------- 2 1.0 49.0 30 30
+ 0.358 0 49 cbr 1000 ------- 2 1.0 49.0 30 30
- 0.358 0 49 cbr 1000 ------- 2 1.0 49.0 30 30
r 0.36 0 49 cbr 1000 ------- 2 1.0 49.0 28 28
+ 0.364 1 0 cbr 1000 ------- 2 1.0 49.0 33 33
- 0.364 1 0 cbr 1000 ------- 2 1.0 49.0 33 33
r 0.366 1 0 cbr 1000 ------- 2 1.0 49.0 31 31
+ 0.366 0 49 cbr 1000 ------- 2 1.0 49.0 31 31
- 0.366 0 49 cbr 1000 ------- 2 1.0 49.0 31 31
r 0.368 0 49 cbr 1000 ------- 2 1.0 49.0 29 29
+ 0.372 1 0 cbr 1000 ------- 2 1.0 49.0 34 34
- 0.372 1 0 cbr 1000 ------- 2 1.0 49.0 34 34
r 0.374 1 0 cbr 1000 ------- 2 1.0 49.0 32 32
+ 0.374 0 49 cbr 1000 ------- 2 1.0 49.0 32 32
- 0.374 0 49 cbr 1000 ------- 2 1.0 49.0 32 32
r 0.376 0 49 cbr 1000 ------- 2 1.0 49.0 30 30
+ 0.38 1 0 cbr 1000 ------- 2 1.0 49.0 35 35
- 0.38 1 0 cbr 1000 ------- 2 1.0 49.0 35 35
r 0.382 1 0 cbr 1000 ------- 2 1.0 49.0 33 33
+ 0.382 0 49 cbr 1000 ------- 2 1.0 49.0 33 33
- 0.382 0 49 cbr 1000 ------- 2 1.0 49.0 33 33
r 0.384 0 49 cbr 1000 ------- 2 1.0 49.0 31 31
+ 0.388 1 0 cbr 1000 ------- 2 1.0 49.0 36 36
- 0.388 1 0 cbr 1000 ------- 2 1.0 49.0 36 36
r 0.39 1 0 cbr 1000 ------- 2 1.0 49.0 34 34
+ 0.39 0 49 cbr 1000 ------- 2 1.0 49.0 34 34
- 0.39 0 49 cbr 1000 ------- 2 1.0 49.0 34 34
r 0.392 0 49 cbr 1000 ------- 2 1.0 49.0 32 32
+ 0.396 1 0 cbr 1000 ------- 2 1.0 49.0 37 37
- 0.396 1 0 cbr 1000 ------- 2 1.0 49.0 37 37
r 0.398 1 0 cbr 1000 ------- 2 1.0 49.0 35 35
+ 0.398 0 49 cbr 1000 ------- 2 1.0 49.0 35 35
- 0.398 0 49 cbr 1000 ------- 2 1.0 49.0 35 35
r 0.4 0 49 cbr 1000 ------- 2 1.0 49.0 33 33
+ 0.404 1 0 cbr 1000 ------- 2 1.0 49.0 38 38
- 0.404 1 0 cbr 1000 ------- 2 1.0 49.0 38 38
r 0.406 1 0 cbr 1000 ------- 2 1.0 49.0 36 36
+ 0.406 0 49 cbr 1000 ------- 2 1.0 49.0 36 36
- 0.406 0 49 cbr 1000 ------- 2 1.0 49.0 36 36
r 0.408 0 49 cbr 1000 ------- 2 1.0 49.0 34 34
+ 0.412 1 0 cbr 1000 ------- 2 1.0 49.0 39 39
- 0.412 1 0 cbr 1000 ------- 2 1.0 49.0 39 39
r 0.414 1 0 cbr 1000 ------- 2 1.0 49.0 37 37
+ 0.414 0 49 cbr 1000 ------- 2 1.0 49.0 37 37
- 0.414 0 49 cbr 1000 ------- 2 1.0 49.0 37 37
r 0.416 0 49 cbr 1000 ------- 2 1.0 49.0 35 35
+ 0.42 1 0 cbr 1000 ------- 2 1.0 49.0 40 40
- 0.42 1 0 cbr 1000 ------- 2 1.0 49.0 40 40
r 0.422 1 0 cbr 1000 ------- 2 1.0 49.0 38 38
+ 0.422 0 49 cbr 1000 ------- 2 1.0 49.0 38 38
- 0.422 0 49 cbr 1000 ------- 2 1.0 49.0 38 38
r 0.424 0 49 cbr 1000 ------- 2 1.0 49.0 36 36
+ 0.428 1 0 cbr 1000 ------- 2 1.0 49.0 41 41
- 0.428 1 0 cbr 1000 ------- 2 1.0 49.0 41 41
r 0.43 1 0 cbr 1000 ------- 2 1.0 49.0 39 39
+ 0.43 0 49 cbr 1000 ------- 2 1.0 49.0 39 39
- 0.43 0 49 cbr 1000 ------- 2 1.0 49.0 39 39
r 0.432 0 49 cbr 1000 ------- 2 1.0 49.0 37 37
+ 0.436 1 0 cbr 1000 ------- 2 1.0 49.0 42 42
- 0.436 1 0 cbr 1000 ------- 2 1.0 49.0 42 42
r 0.438 1 0 cbr 1000 ------- 2 1.0 49.0 40 40
+ 0.438 0 49 cbr 1000 ------- 2 1.0 49.0 40 40
- 0.438 0 49 cbr 1000 ------- 2 1.0 49.0 40 40
r 0.44 0 49 cbr 1000 ------- 2 1.0 49.0 38 38
+ 0.444 1 0 cbr 1000 ------- 2 1.0 49.0 43 43
- 0.444 1 0 cbr 1000 ------- 2 1.0 49.0 43 43
r 0.446 1 0 cbr 1000 ------- 2 1.0 49.0 41 41
+ 0.446 0 49 cbr 1000 ------- 2 1.0 49.0 41 41
- 0.446 0 49 cbr 1000 ------- 2 1.0 49.0 41 41
r 0.448 0 49 cbr 1000 ------- 2 1.0 49.0 39 39
+ 0.452 1 0 cbr 1000 ------- 2 1.0 49.0 44 44
- 0.452 1 0 cbr 1000 ------- 2 1.0 49.0 44 44
r 0.454 1 0 cbr 1000 ------- 2 1.0 49.0 42 42
+ 0.454 0 49 cbr 1000 ------- 2 1.0 49.0 42 42
- 0.454 0 49 cbr 1000 ------- 2 1.0 49.0 42 42
r 0.456 0 49 cbr 1000 ------- 2 1.0 49.0 40 40
+ 0.46 1 0 cbr 1000 ------- 2 1.0 49.0 45 45
- 0.46 1 0 cbr 1000 ------- 2 1.0 49.0 45 45
r 0.462 1 0 cbr 1000 ------- 2 1.0 49.0 43 43
+ 0.462 0 49 cbr 1000 ------- 2 1.0 49.0 43 43
- 0.462 0 49 cbr 1000 ------- 2 1.0 49.0 43 43
r 0.464 0 49 cbr 1000 ------- 2 1.0 49.0 41 41
+ 0.468 1 0 cbr 1000 ------- 2 1.0 49.0 46 46
- 0.468 1 0 cbr 1000 ------- 2 1.0 49.0 46 46
r 0.47 1 0 cbr 1000 ------- 2 1.0 49.0 44 44
+ 0.47 0 49 cbr 1000 ------- 2 1.0 49.0 44 44
- 0.47 0 49 cbr 1000 ------- 2 1.0 49.0 44 44
r 0.472 0 49 cbr 1000 ------- 2 1.0 49.0 42 42
+ 0.476 1 0 cbr 1000 ------- 2 1.0 49.0 47 47
- 0.476 1 0 cbr 1000 ------- 2 1.0 49.0 47 47
r 0.478 1 0 cbr 1000 ------- 2 1.0 49.0 45 45
+ 0.478 0 49 cbr 1000 ------- 2 1.0 49.0 45 45
- 0.478 0 49 cbr 1000 ------- 2 1.0 49.0 45 45
r 0.48 0 49 cbr 1000 ------- 2 1.0 49.0 43 43
+ 0.484 1 0 cbr 1000 ------- 2 1.0 49.0 48 48
- 0.484 1 0 cbr 1000 ------- 2 1.0 49.0 48 48
r 0.486 1 0 cbr 1000 ------- 2 1.0 49.0 46 46
+ 0.486 0 49 cbr 1000 ------- 2 1.0 49.0 46 46
- 0.486 0 49 cbr 1000 ------- 2 1.0 49.0 46 46
r 0.488 0 49 cbr 1000 ------- 2 1.0 49.0 44 44
+ 0.492 1 0 cbr 1000 ------- 2 1.0 49.0 49 49
- 0.492 1 0 cbr 1000 ------- 2 1.0 49.0 49 49
r 0.494 1 0 cbr 1000 ------- 2 1.0 49.0 47 47
+ 0.494 0 49 cbr 1000 ------- 2 1.0 49.0 47 47
- 0.494 0 49 cbr 1000 ------- 2 1.0 49.0 47 47
r 0.496 0 49 cbr 1000 ------- 2 1.0 49.0 45 45
+ 0.5 1 0 cbr 1000 ------- 2 1.0 49.0 50 50
- 0.5 1 0 cbr 1000 ------- 2 1.0 49.0 50 50
r 0.502 1 0 cbr 1000 ------- 2 1.0 49.0 48 48
+ 0.502 0 49 cbr 1000 ------- 2 1.0 49.0 48 48
- 0.502 0 49 cbr 1000 ------- 2 1.0 49.0 48 48
r 0.504 0 49 cbr 1000 ------- 2 1.0 49.0 46 46
+ 0.508 1 0 cbr 1000 ------- 2 1.0 49.0 51 51
- 0.508 1 0 cbr 1000 ------- 2 1.0 49.0 51 51
r 0.51 1 0 cbr 1000 ------- 2 1.0 49.0 49 49
+ 0.51 0 49 cbr 1000 ------- 2 1.0 49.0 49 49
- 0.51 0 49 cbr 1000 ------- 2 1.0 49.0 49 49
r 0.512 0 49 cbr 1000 ------- 2 1.0 49.0 47 47
+ 0.516 1 0 cbr 1000 ------- 2 1.0 49.0 52 52
- 0.516 1 0 cbr 1000 ------- 2 1.0 49.0 52 52
r 0.518 1 0 cbr 1000 ------- 2 1.0 49.0 50 50
+ 0.518 0 49 cbr 1000 ------- 2 1.0 49.0 50 50
- 0.518 0 49 cbr 1000 ------- 2 1.0 49.0 50 50
r 0.52 0 49 cbr 1000 ------- 2 1.0 49.0 48 48
+ 0.524 1 0 cbr 1000 ------- 2 1.0 49.0 53 53
- 0.524 1 0 cbr 1000 ------- 2 1.0 49.0 53 53
r 0.526 1 0 cbr 1000 ------- 2 1.0 49.0 51 51
+ 0.526 0 49 cbr 1000 ------- 2 1.0 49.0 51 51
- 0.526 0 49 cbr 1000 ------- 2 1.0 49.0 51 51
r 0.528 0 49 cbr 1000 ------- 2 1.0 49.0 49 49
+ 0.532 1 0 cbr 1000 ------- 2 1.0 49.0 54 54
- 0.532 1 0 cbr 1000 ------- 2 1.0 49.0 54 54
r 0.534 1 0 cbr 1000 ------- 2 1.0 49.0 52 52
+ 0.534 0 49 cbr 1000 ------- 2 1.0 49.0 52 52
- 0.534 0 49 cbr 1000 ------- 2 1.0 49.0 52 52
r 0.536 0 49 cbr 1000 ------- 2 1.0 49.0 50 50
+ 0.54 1 0 cbr 1000 ------- 2 1.0 49.0 55 55
- 0.54 1 0 cbr 1000 ------- 2 1.0 49.0 55 55
r 0.542 1 0 cbr 1000 ------- 2 1.0 49.0 53 53
+ 0.542 0 49 cbr 1000 ------- 2 1.0 49.0 53 53
- 0.542 0 49 cbr 1000 ------- 2 1.0 49.0 53 53
r 0.544 0 49 cbr 1000 ------- 2 1.0 49.0 51 51
+ 0.548 1 0 cbr 1000 ------- 2 1.0 49.0 56 56
- 0.548 1 0 cbr 1000 ------- 2 1.0 49.0 56 56
r 0.55 1 0 cbr 1000 ------- 2 1.0 49.0 54 54
+ 0.55 0 49 cbr 1000 ------- 2 1.0 49.0 54 54
- 0.55 0 49 cbr 1000 ------- 2 1.0 49.0 54 54
r 0.552 0 49 cbr 1000 ------- 2 1.0 49.0 52 52
+ 0.556 1 0 cbr 1000 ------- 2 1.0 49.0 57 57
- 0.556 1 0 cbr 1000 ------- 2 1.0 49.0 57 57
r 0.558 1 0 cbr 1000 ------- 2 1.0 49.0 55 55
+ 0.558 0 49 cbr 1000 ------- 2 1.0 49.0 55 55
- 0.558 0 49 cbr 1000 ------- 2 1.0 49.0 55 55
r 0.56 0 49 cbr 1000 ------- 2 1.0 49.0 53 53
+ 0.564 1 0 cbr 1000 ------- 2 1.0 49.0 58 58
- 0.564 1 0 cbr 1000 ------- 2 1.0 49.0 58 58
r 0.566 1 0 cbr 1000 ------- 2 1.0 49.0 56 56
+ 0.566 0 49 cbr 1000 ------- 2 1.0 49.0 56 56
- 0.566 0 49 cbr 1000 ------- 2 1.0 49.0 56 56
r 0.568 0 49 cbr 1000 ------- 2 1.0 49.0 54 54
+ 0.572 1 0 cbr 1000 ------- 2 1.0 49.0 59 59
- 0.572 1 0 cbr 1000 ------- 2 1.0 49.0 59 59
r 0.574 1 0 cbr 1000 ------- 2 1.0 49.0 57 57
+ 0.574 0 49 cbr 1000 ------- 2 1.0 49.0 57 57
- 0.574 0 49 cbr 1000 ------- 2 1.0 49.0 57 57
r 0.576 0 49 cbr 1000 ------- 2 1.0 49.0 55 55
+ 0.58 1 0 cbr 1000 ------- 2 1.0 49.0 60 60
- 0.58 1 0 cbr 1000 ------- 2 1.0 49.0 60 60
r 0.582 1 0 cbr 1000 ------- 2 1.0 49.0 58 58
+ 0.582 0 49 cbr 1000 ------- 2 1.0 49.0 58 58
- 0.582 0 49 cbr 1000 ------- 2 1.0 49.0 58 58
r 0.584 0 49 cbr 1000 ------- 2 1.0 49.0 56 56
+ 0.588 1 0 cbr 1000 ------- 2 1.0 49.0 61 61
- 0.588 1 0 cbr 1000 ------- 2 1.0 49.0 61 61
r 0.59 1 0 cbr 1000 ------- 2 1.0 49.0 59 59
+ 0.59 0 49 cbr 1000 ------- 2 1.0 49.0 59 59
- 0.59 0 49 cbr 1000 ------- 2 1.0 49.0 59 59
r 0.592 0 49 cbr 1000 ------- 2 1.0 49.0 57 57
+ 0.596 1 0 cbr 1000 ------- 2 1.0 49.0 62 62
- 0.596 1 0 cbr 1000 ------- 2 1.0 49.0 62 62
r 0.598 1 0 cbr 1000 ------- 2 1.0 49.0 60 60
+ 0.598 0 49 cbr 1000 ------- 2 1.0 49.0 60 60
- 0.598 0 49 cbr 1000 ------- 2 1.0 49.0 60 60
r 0.6 0 49 cbr 1000 ------- 2 1.0 49.0 58 58
+ 0.604 1 0 cbr 1000 ------- 2 1.0 49.0 63 63
- 0.604 1 0 cbr 1000 ------- 2 1.0 49.0 63 63
r 0.606 1 0 cbr 1000 ------- 2 1.0 49.0 61 61
+ 0.606 0 49 cbr 1000 ------- 2 1.0 49.0 61 61
- 0.606 0 49 cbr 1000 ------- 2 1.0 49.0 61 61
r 0.608 0 49 cbr 1000 ------- 2 1.0 49.0 59 59
+ 0.612 1 0 cbr 1000 ------- 2 1.0 49.0 64 64
- 0.612 1 0 cbr 1000 ------- 2 1.0 49.0 64 64
r 0.614 1 0 cbr 1000 ------- 2 1.0 49.0 62 62
+ 0.614 0 49 cbr 1000 ------- 2 1.0 49.0 62 62
- 0.614 0 49 cbr 1000 ------- 2 1.0 49.0 62 62
r 0.616 0 49 cbr 1000 ------- 2 1.0 49.0 60 60
+ 0.62 1 0 cbr 1000 ------- 2 1.0 49.0 65 65
- 0.62 1 0 cbr 1000 ------- 2 1.0 49.0 65 65
r 0.622 1 0 cbr 1000 ------- 2 1.0 49.0 63 63
+ 0.622 0 49 cbr 1000 ------- 2 1.0 49.0 63 63
- 0.622 0 49 cbr 1000 ------- 2 1.0 49.0 63 63
r 0.624 0 49 cbr 1000 ------- 2 1.0 49.0 61 61
+ 0.628 1 0 cbr 1000 ------- 2 1.0 49.0 66 66
- 0.628 1 0 cbr 1000 ------- 2 1.0 49.0 66 66
r 0.63 1 0 cbr 1000 ------- 2 1.0 49.0 64 64
+ 0.63 0 49 cbr 1000 ------- 2 1.0 49.0 64 64
- 0.63 0 49 cbr 1000 ------- 2 1.0 49.0 64 64
r 0.632 0 49 cbr 1000 ------- 2 1.0 49.0 62 62
+ 0.636 1 0 cbr 1000 ------- 2 1.0 49.0 67 67
- 0.636 1 0 cbr 1000 ------- 2 1.0 49.0 67 67
r 0.638 1 0 cbr 1000 ------- 2 1.0 49.0 65 65
+ 0.638 0 49 cbr 1000 ------- 2 1.0 49.0 65 65
- 0.638 0 49 cbr 1000 ------- 2 1.0 49.0 65 65
r 0.64 0 49 cbr 1000 ------- 2 1.0 49.0 63 63
+ 0.644 1 0 cbr 1000 ------- 2 1.0 49.0 68 68
- 0.644 1 0 cbr 1000 ------- 2 1.0 49.0 68 68
r 0.646 1 0 cbr 1000 ------- 2 1.0 49.0 66 66
+ 0.646 0 49 cbr 1000 ------- 2 1.0 49.0 66 66
- 0.646 0 49 cbr 1000 ------- 2 1.0 49.0 66 66
r 0.648 0 49 cbr 1000 ------- 2 1.0 49.0 64 64
+ 0.652 1 0 cbr 1000 ------- 2 1.0 49.0 69 69
- 0.652 1 0 cbr 1000 ------- 2 1.0 49.0 69 69
r 0.654 1 0 cbr 1000 ------- 2 1.0 49.0 67 67
+ 0.654 0 49 cbr 1000 ------- 2 1.0 49.0 67 67
- 0.654 0 49 cbr 1000 ------- 2 1.0 49.0 67 67
r 0.656 0 49 cbr 1000 ------- 2 1.0 49.0 65 65
+ 0.66 1 0 cbr 1000 ------- 2 1.0 49.0 70 70
- 0.66 1 0 cbr 1000 ------- 2 1.0 49.0 70 70
r 0.662 1 0 cbr 1000 ------- 2 1.0 49.0 68 68
+ 0.662 0 49 cbr 1000 ------- 2 1.0 49.0 68 68
- 0.662 0 49 cbr 1000 ------- 2 1.0 49.0 68 68
r 0.664 0 49 cbr 1000 ------- 2 1.0 49.0 66 66
+ 0.668 1 0 cbr 1000 ------- 2 1.0 49.0 71 71
- 0.668 1 0 cbr 1000 ------- 2 1.0 49.0 71 71
r 0.67 1 0 cbr 1000 ------- 2 1.0 49.0 69 69
+ 0.67 0 49 cbr 1000 ------- 2 1.0 49.0 69 69
- 0.67 0 49 cbr 1000 ------- 2 1.0 49.0 69 69
r 0.672 0 49 cbr 1000 ------- 2 1.0 49.0 67 67
+ 0.676 1 0 cbr 1000 ------- 2 1.0 49.0 72 72
- 0.676 1 0 cbr 1000 ------- 2 1.0 49.0 72 72
r 0.678 1 0 cbr 1000 ------- 2 1.0 49.0 70 70
+ 0.678 0 49 cbr 1000 ------- 2 1.0 49.0 70 70
- 0.678 0 49 cbr 1000 ------- 2 1.0 49.0 70 70
r 0.68 0 49 cbr 1000 ------- 2 1.0 49.0 68 68
+ 0.684 1 0 cbr 1000 ------- 2 1.0 49.0 73 73
- 0.684 1 0 cbr 1000 ------- 2 1.0 49.0 73 73
r 0.686 1 0 cbr 1000 ------- 2 1.0 49.0 71 71
+ 0.686 0 49 cbr 1000 ------- 2 1.0 49.0 71 71
- 0.686 0 49 cbr 1000 ------- 2 1.0 49.0 71 71
r 0.688 0 49 cbr 1000 ------- 2 1.0 49.0 69 69
+ 0.692 1 0 cbr 1000 ------- 2 1.0 49.0 74 74
- 0.692 1 0 cbr 1000 ------- 2 1.0 49.0 74 74
r 0.694 1 0 cbr 1000 ------- 2 1.0 49.0 72 72
+ 0.694 0 49 cbr 1000 ------- 2 1.0 49.0 72 72
- 0.694 0 49 cbr 1000 ------- 2 1.0 49.0 72 72
r 0.696 0 49 cbr 1000 ------- 2 1.0 49.0 70 70
+ 0.7 1 0 cbr 1000 ------- 2 1.0 49.0 75 75
- 0.7 1 0 cbr 1000 ------- 2 1.0 49.0 75 75
r 0.702 1 0 cbr 1000 ------- 2 1.0 49.0 73 73
+ 0.702 0 49 cbr 1000 ------- 2 1.0 49.0 73 73
- 0.702 0 49 cbr 1000 ------- 2 1.0 49.0 73 73
r 0.704 0 49 cbr 1000 ------- 2 1.0 49.0 71 71
+ 0.708 1 0 cbr 1000 ------- 2 1.0 49.0 76 76
- 0.708 1 0 cbr 1000 ------- 2 1.0 49.0 76 76
r 0.71 1 0 cbr 1000 ------- 2 1.0 49.0 74 74
+ 0.71 0 49 cbr 1000 ------- 2 1.0 49.0 74 74
- 0.71 0 49 cbr 1000 ------- 2 1.0 49.0 74 74
r 0.712 0 49 cbr 1000 ------- 2 1.0 49.0 72 72
+ 0.716 1 0 cbr 1000 ------- 2 1.0 49.0 77 77
- 0.716 1 0 cbr 1000 ------- 2 1.0 49.0 77 77
r 0.718 1 0 cbr 1000 ------- 2 1.0 49.0 75 75
+ 0.718 0 49 cbr 1000 ------- 2 1.0 49.0 75 75
- 0.718 0 49 cbr 1000 ------- 2 1.0 49.0 75 75
r 0.72 0 49 cbr 1000 ------- 2 1.0 49.0 73 73
+ 0.724 1 0 cbr 1000 ------- 2 1.0 49.0 78 78
- 0.724 1 0 cbr 1000 ------- 2 1.0 49.0 78 78
r 0.726 1 0 cbr 1000 ------- 2 1.0 49.0 76 76
+ 0.726 0 49 cbr 1000 ------- 2 1.0 49.0 76 76
- 0.726 0 49 cbr 1000 ------- 2 1.0 49.0 76 76
r 0.728 0 49 cbr 1000 ------- 2 1.0 49.0 74 74
+ 0.732 1 0 cbr 1000 ------- 2 1.0 49.0 79 79
- 0.732 1 0 cbr 1000 ------- 2 1.0 49.0 79 79
r 0.734 1 0 cbr 1000 ------- 2 1.0 49.0 77 77
+ 0.734 0 49 cbr 1000 ------- 2 1.0 49.0 77 77
- 0.734 0 49 cbr 1000 ------- 2 1.0 49.0 77 77
r 0.736 0 49 cbr 1000 ------- 2 1.0 49.0 75 75
+ 0.74 1 0 cbr 1000 ------- 2 1.0 49.0 80 80
- 0.74 1 0 cbr 1000 ------- 2 1.0 49.0 80 80
r 0.742 1 0 cbr 1000 ------- 2 1.0 49.0 78 78
+ 0.742 0 49 cbr 1000 ------- 2 1.0 49.0 78 78
- 0.742 0 49 cbr 1000 ------- 2 1.0 49.0 78 78
r 0.744 0 49 cbr 1000 ------- 2 1.0 49.0 76 76
+ 0.748 1 0 cbr 1000 ------- 2 1.0 49.0 81 81
- 0.748 1 0 cbr 1000 ------- 2 1.0 49.0 81 81
r 0.75 1 0 cbr 1000 ------- 2 1.0 49.0 79 79
+ 0.75 0 49 cbr 1000 ------- 2 1.0 49.0 79 79
- 0.75 0 49 cbr 1000 ------- 2 1.0 49.0 79 79
r 0.752 0 49 cbr 1000 ------- 2 1.0 49.0 77 77
+ 0.756 1 0 cbr 1000 ------- 2 1.0 49.0 82 82
- 0.756 1 0 cbr 1000 ------- 2 1.0 49.0 82 82
r 0.758 1 0 cbr 1000 ------- 2 1.0 49.0 80 80
+ 0.758 0 49 cbr 1000 ------- 2 1.0 49.0 80 80
- 0.758 0 49 cbr 1000 ------- 2 1.0 49.0 80 80
r 0.76 0 49 cbr 1000 ------- 2 1.0 49.0 78 78
+ 0.764 1 0 cbr 1000 ------- 2 1.0 49.0 83 83
- 0.764 1 0 cbr 1000 ------- 2 1.0 49.0 83 83
r 0.766 1 0 cbr 1000 ------- 2 1.0 49.0 81 81
+ 0.766 0 49 cbr 1000 ------- 2 1.0 49.0 81 81
- 0.766 0 49 cbr 1000 ------- 2 1.0 49.0 81 81
r 0.768 0 49 cbr 1000 ------- 2 1.0 49.0 79 79
+ 0.772 1 0 cbr 1000 ------- 2 1.0 49.0 84 84
- 0.772 1 0 cbr 1000 ------- 2 1.0 49.0 84 84
r 0.774 1 0 cbr 1000 ------- 2 1.0 49.0 82 82
+ 0.774 0 49 cbr 1000 ------- 2 1.0 49.0 82 82
- 0.774 0 49 cbr 1000 ------- 2 1.0 49.0 82 82
r 0.776 0 49 cbr 1000 ------- 2 1.0 49.0 80 80
+ 0.78 1 0 cbr 1000 ------- 2 1.0 49.0 85 85
- 0.78 1 0 cbr 1000 ------- 2 1.0 49.0 85 85
r 0.782 1 0 cbr 1000 ------- 2 1.0 49.0 83 83
+ 0.782 0 49 cbr 1000 ------- 2 1.0 49.0 83 83
- 0.782 0 49 cbr 1000 ------- 2 1.0 49.0 83 83
r 0.784 0 49 cbr 1000 ------- 2 1.0 49.0 81 81
+ 0.788 1 0 cbr 1000 ------- 2 1.0 49.0 86 86
- 0.788 1 0 cbr 1000 ------- 2 1.0 49.0 86 86
r 0.79 1 0 cbr 1000 ------- 2 1.0 49.0 84 84
+ 0.79 0 49 cbr 1000 ------- 2 1.0 49.0 84 84
- 0.79 0 49 cbr 1000 ------- 2 1.0 49.0 84 84
r 0.792 0 49 cbr 1000 ------- 2 1.0 49.0 82 82
+ 0.796 1 0 cbr 1000 ------- 2 1.0 49.0 87 87
- 0.796 1 0 cbr 1000 ------- 2 1.0 49.0 87 87
r 0.798 1 0 cbr 1000 ------- 2 1.0 49.0 85 85
+ 0.798 0 49 cbr 1000 ------- 2 1.0 49.0 85 85
- 0.798 0 49 cbr 1000 ------- 2 1.0 49.0 85 85
r 0.8 0 49 cbr 1000 ------- 2 1.0 49.0 83 83
+ 0.804 1 0 cbr 1000 ------- 2 1.0 49.0 88 88
- 0.804 1 0 cbr 1000 ------- 2 1.0 49.0 88 88
r 0.806 1 0 cbr 1000 ------- 2 1.0 49.0 86 86
+ 0.806 0 49 cbr 1000 ------- 2 1.0 49.0 86 86
- 0.806 0 49 cbr 1000 ------- 2 1.0 49.0 86 86
r 0.808 0 49 cbr 1000 ------- 2 1.0 49.0 84 84
+ 0.812 1 0 cbr 1000 ------- 2 1.0 49.0 89 89
- 0.812 1 0 cbr 1000 ------- 2 1.0 49.0 89 89
r 0.814 1 0 cbr 1000 ------- 2 1.0 49.0 87 87
+ 0.814 0 49 cbr 1000 ------- 2 1.0 49.0 87 87
- 0.814 0 49 cbr 1000 ------- 2 1.0 49.0 87 87
r 0.816 0 49 cbr 1000 ------- 2 1.0 49.0 85 85
+ 0.82 1 0 cbr 1000 ------- 2 1.0 49.0 90 90
- 0.82 1 0 cbr 1000 ------- 2 1.0 49.0 90 90
r 0.822 1 0 cbr 1000 ------- 2 1.0 49.0 88 88
+ 0.822 0 49 cbr 1000 ------- 2 1.0 49.0 88 88
- 0.822 0 49 cbr 1000 ------- 2 1.0 49.0 88 88
r 0.824 0 49 cbr 1000 ------- 2 1.0 49.0 86 86
+ 0.828 1 0 cbr 1000 ------- 2 1.0 49.0 91 91
- 0.828 1 0 cbr 1000 ------- 2 1.0 49.0 91 91
r 0.83 1 0 cbr 1000 ------- 2 1.0 49.0 89 89
+ 0.83 0 49 cbr 1000 ------- 2 1.0 49.0 89 89
- 0.83 0 49 cbr 1000 ------- 2 1.0 49.0 89 89
r 0.832 0 49 cbr 1000 ------- 2 1.0 49.0 87 87
+ 0.836 1 0 cbr 1000 ------- 2 1.0 49.0 92 92
- 0.836 1 0 cbr 1000 ------- 2 1.0 49.0 92 92
r 0.838 1 0 cbr 1000 ------- 2 1.0 49.0 90 90
+ 0.838 0 49 cbr 1000 ------- 2 1.0 49.0 90 90
- 0.838 0 49 cbr 1000 ------- 2 1.0 49.0 90 90
r 0.84 0 49 cbr 1000 ------- 2 1.0 49.0 88 88
+ 0.844 1 0 cbr 1000 ------- 2 1.0 49.0 93 93
- 0.844 1 0 cbr 1000 ------- 2 1.0 49.0 93 93
r 0.846 1 0 cbr 1000 ------- 2 1.0 49.0 91 91
+ 0.846 0 49 cbr 1000 ------- 2 1.0 49.0 91 91
- 0.846 0 49 cbr 1000 ------- 2 1.0 49.0 91 91
r 0.848 0 49 cbr 1000 ------- 2 1.0 49.0 89 89
+ 0.852 1 0 cbr 1000 ------- 2 1.0 49.0 94 94
- 0.852 1 0 cbr 1000 ------- 2 1.0 49.0 94 94
r 0.854 1 0 cbr 1000 ------- 2 1.0 49.0 92 92
+ 0.854 0 49 cbr 1000 ------- 2 1.0 49.0 92 92
- 0.854 0 49 cbr 1000 ------- 2 1.0 49.0 92 92
r 0.856 0 49 cbr 1000 ------- 2 1.0 49.0 90 90
+ 0.86 1 0 cbr 1000 ------- 2 1.0 49.0 95 95
- 0.86 1 0 cbr 1000 ------- 2 1.0 49.0 95 95
r 0.862 1 0 cbr 1000 ------- 2 1.0 49.0 93 93
+ 0.862 0 49 cbr 1000 ------- 2 1.0 49.0 93 93
- 0.862 0 49 cbr 1000 ------- 2 1.0 49.0 93 93
r 0.864 0 49 cbr 1000 ------- 2 1.0 49.0 91 91
+ 0.868 1 0 cbr 1000 ------- 2 1.0 49.0 96 96
- 0.868 1 0 cbr 1000 ------- 2 1.0 49.0 96 96
r 0.87 1 0 cbr 1000 ------- 2 1.0 49.0 94 94
+ 0.87 0 49 cbr 1000 ------- 2 1.0 49.0 94 94
- 0.87 0 49 cbr 1000 ------- 2 1.0 49.0 94 94
r 0.872 0 49 cbr 1000 ------- 2 1.0 49.0 92 92
+ 0.876 1 0 cbr 1000 ------- 2 1.0 49.0 97 97
- 0.876 1 0 cbr 1000 ------- 2 1.0 49.0 97 97
r 0.878 1 0 cbr 1000 ------- 2 1.0 49.0 95 95
+ 0.878 0 49 cbr 1000 ------- 2 1.0 49.0 95 95
- 0.878 0 49 cbr 1000 ------- 2 1.0 49.0 95 95
r 0.88 0 49 cbr 1000 ------- 2 1.0 49.0 93 93
+ 0.884 1 0 cbr 1000 ------- 2 1.0 49.0 98 98
- 0.884 1 0 cbr 1000 ------- 2 1.0 49.0 98 98
r 0.886 1 0 cbr 1000 ------- 2 1.0 49.0 96 96
+ 0.886 0 49 cbr 1000 ------- 2 1.0 49.0 96 96
- 0.886 0 49 cbr 1000 ------- 2 1.0 49.0 96 96
r 0.888 0 49 cbr 1000 ------- 2 1.0 49.0 94 94
+ 0.892 1 0 cbr 1000 ------- 2 1.0 49.0 99 99
- 0.892 1 0 cbr 1000 ------- 2 1.0 49.0 99 99
r 0.894 1 0 cbr 1000 ------- 2 1.0 49.0 97 97
+ 0.894 0 49 cbr 1000 ------- 2 1.0 49.0 97 97
- 0.894 0 49 cbr 1000 ------- 2 1.0 49.0 97 97
r 0.896 0 49 cbr 1000 ------- 2 1.0 49.0 95 95
+ 0.9 1 0 cbr 1000 ------- 2 1.0 49.0 100 100
- 0.9 1 0 cbr 1000 ------- 2 1.0 49.0 100 100
r 0.902 1 0 cbr 1000 ------- 2 1.0 49.0 98 98
+ 0.902 0 49 cbr 1000 ------- 2 1.0 49.0 98 98
- 0.902 0 49 cbr 1000 ------- 2 1.0 49.0 98 98
r 0.904 0 49 cbr 1000 ------- 2 1.0 49.0 96 96
+ 0.908 1 0 cbr 1000 ------- 2 1.0 49.0 101 101
- 0.908 1 0 cbr 1000 ------- 2 1.0 49.0 101 101
r 0.91 1 0 cbr 1000 ------- 2 1.0 49.0 99 99
+ 0.91 0 49 cbr 1000 ------- 2 1.0 49.0 99 99
- 0.91 0 49 cbr 1000 ------- 2 1.0 49.0 99 99
r 0.912 0 49 cbr 1000 ------- 2 1.0 49.0 97 97
+ 0.916 1 0 cbr 1000 ------- 2 1.0 49.0 102 102
- 0.916 1 0 cbr 1000 ------- 2 1.0 49.0 102 102
r 0.918 1 0 cbr 1000 ------- 2 1.0 49.0 100 100
+ 0.918 0 49 cbr 1000 ------- 2 1.0 49.0 100 100
- 0.918 0 49 cbr 1000 ------- 2 1.0 49.0 100 100
r 0.92 0 49 cbr 1000 ------- 2 1.0 49.0 98 98
+ 0.924 1 0 cbr 1000 ------- 2 1.0 49.0 103 103
- 0.924 1 0 cbr 1000 ------- 2 1.0 49.0 103 103
r 0.926 1 0 cbr 1000 ------- 2 1.0 49.0 101 101
+ 0.926 0 49 cbr 1000 ------- 2 1.0 49.0 101 101
- 0.926 0 49 cbr 1000 ------- 2 1.0 49.0 101 101
r 0.928 0 49 cbr 1000 ------- 2 1.0 49.0 99 99
+ 0.932 1 0 cbr 1000 ------- 2 1.0 49.0 104 104
- 0.932 1 0 cbr 1000 ------- 2 1.0 49.0 104 104
r 0.934 1 0 cbr 1000 ------- 2 1.0 49.0 102 102
+ 0.934 0 49 cbr 1000 ------- 2 1.0 49.0 102 102
- 0.934 0 49 cbr 1000 ------- 2 1.0 49.0 102 102
r 0.936 0 49 cbr 1000 ------- 2 1.0 49.0 100 100
+ 0.94 1 0 cbr 1000 ------- 2 1.0 49.0 105 105
- 0.94 1 0 cbr 1000 ------- 2 1.0 49.0 105 105
r 0.942 1 0 cbr 1000 ------- 2 1.0 49.0 103 103
+ 0.942 0 49 cbr 1000 ------- 2 1.0 49.0 103 103
- 0.942 0 49 cbr 1000 ------- 2 1.0 49.0 103 103
r 0.944 0 49 cbr 1000 ------- 2 1.0 49.0 101 101
+ 0.948 1 0 cbr 1000 ------- 2 1.0 49.0 106 106
- 0.948 1 0 cbr 1000 ------- 2 1.0 49.0 106 106
r 0.95 1 0 cbr 1000 ------- 2 1.0 49.0 104 104
+ 0.95 0 49 cbr 1000 ------- 2 1.0 49.0 104 104
- 0.95 0 49 cbr 1000 ------- 2 1.0 49.0 104 104
r 0.952 0 49 cbr 1000 ------- 2 1.0 49.0 102 102
+ 0.956 1 0 cbr 1000 ------- 2 1.0 49.0 107 107
- 0.956 1 0 cbr 1000 ------- 2 1.0 49.0 107 107
r 0.958 1 0 cbr 1000 ------- 2 1.0 49.0 105 105
+ 0.958 0 49 cbr 1000 ------- 2 1.0 49.0 105 105
- 0.958 0 49 cbr 1000 ------- 2 1.0 49.0 105 105
r 0.96 0 49 cbr 1000 ------- 2 1.0 49.0 103 103
+ 0.964 1 0 cbr 1000 ------- 2 1.0 49.0 108 108
- 0.964 1 0 cbr 1000 ------- 2 1.0 49.0 108 108
r 0.966 1 0 cbr 1000 ------- 2 1.0 49.0 106 106
+ 0.966 0 49 cbr 1000 ------- 2 1.0 49.0 106 106
- 0.966 0 49 cbr 1000 ------- 2 1.0 49.0 106 106
r 0.968 0 49 cbr 1000 ------- 2 1.0 49.0 104 104
+ 0.972 1 0 cbr 1000 ------- 2 1.0 49.0 109 109
- 0.972 1 0 cbr 1000 ------- 2 1.0 49.0 109 109
r 0.974 1 0 cbr 1000 ------- 2 1.0 49.0 107 107
+ 0.974 0 49 cbr 1000 ------- 2 1.0 49.0 107 107